<?xml version="1.0"?>
<VTKFile type="UnstructuredGrid"  version="0.1"  >
<UnstructuredGrid>
<Piece  NumberOfPoints="11156" NumberOfCells="22000">
<Points>
<DataArray  type="Float64"  NumberOfComponents="3"  format="ascii">0 0 0  2 0 0  4 0 0  6 0 0  8 0 0  10 0 0  12 0 0  14 0 0  16 0 0  18 0 0  20 0 0  22 0 0  24 0 0  26 0 0  28 0 0  30 0 0  32 0 0  34 0 0  36 0 0  38 0 0  40 0 0  42 0 0  44 0 0  46 0 0  48 0 0  50 0 0  52 0 0  54 0 0  56 0 0  58 0 0  60 0 0  62 0 0  64 0 0  66 0 0  68 0 0  70 0 0  72 0 0  74 0 0  76 0 0  78 0 0  80 0 0  82 0 0  84 0 0  86 0 0  88 0 0  90 0 0  92 0 0  94 0 0  96 0 0  98 0 0  100 0 0  102 0 0  104 0 0  106 0 0  108 0 0  110 0 0  112 0 0  114 0 0  116 0 0  118 0 0  120 0 0  122 0 0  124 0 0  126 0 0  128 0 0  130 0 0  132 0 0  134 0 0  136 0 0  138 0 0  140 0 0  142 0 0  144 0 0  146 0 0  148 0 0  150 0 0  152 0 0  154 0 0  156 0 0  158 0 0  160 0 0  162 0 0  164 0 0  166 0 0  168 0 0  170 0 0  172 0 0  174 0 0  176 0 0  178 0 0  180 0 0  182 0 0  184 0 0  186 0 0  188 0 0  190 0 0  192 0 0  194 0 0  196 0 0  198 0 0  200 0 0  0 2 0  2 2 0  4 2 0  6 2 0  8 2 0  10 2 0  12 2 0  14 2 0  16 2 0  18 2 0  20 2 0  22 2 0  24 2 0  26 2 0  28 2 0  30 2 0  32 2 0  34 2 0  36 2 0  38 2 0  40 2 0  42 2 0  44 2 0  46 2 0  48 2 0  50 2 0  52 2 0  54 2 0  56 2 0  58 2 0  60 2 0  62 2 0  64 2 0  66 2 0  68 2 0  70 2 0  72 2 0  74 2 0  76 2 0  78 2 0  80 2 0  82 2 0  84 2 0  86 2 0  88 2 0  90 2 0  92 2 0  94 2 0  96 2 0  98 2 0  100 2 0  102 2 0  104 2 0  106 2 0  108 2 0  110 2 0  112 2 0  114 2 0  116 2 0  118 2 0  120 2 0  122 2 0  124 2 0  126 2 0  128 2 0  130 2 0  132 2 0  134 2 0  136 2 0  138 2 0  140 2 0  142 2 0  144 2 0  146 2 0  148 2 0  150 2 0  152 2 0  154 2 0  156 2 0  158 2 0  160 2 0  162 2 0  164 2 0  166 2 0  168 2 0  170 2 0  172 2 0  174 2 0  176 2 0  178 2 0  180 2 0  182 2 0  184 2 0  186 2 0  188 2 0  190 2 0  192 2 0  194 2 0  196 2 0  198 2 0  200 2 0  0 4 0  2 4 0  4 4 0  6 4 0  8 4 0  10 4 0  12 4 0  14 4 0  16 4 0  18 4 0  20 4 0  22 4 0  24 4 0  26 4 0  28 4 0  30 4 0  32 4 0  34 4 0  36 4 0  38 4 0  40 4 0  42 4 0  44 4 0  46 4 0  48 4 0  50 4 0  52 4 0  54 4 0  56 4 0  58 4 0  60 4 0  62 4 0  64 4 0  66 4 0  68 4 0  70 4 0  72 4 0  74 4 0  76 4 0  78 4 0  80 4 0  82 4 0  84 4 0  86 4 0  88 4 0  90 4 0  92 4 0  94 4 0  96 4 0  98 4 0  100 4 0  102 4 0  104 4 0  106 4 0  108 4 0  110 4 0  112 4 0  114 4 0  116 4 0  118 4 0  120 4 0  122 4 0  124 4 0  126 4 0  128 4 0  130 4 0  132 4 0  134 4 0  136 4 0  138 4 0  140 4 0  142 4 0  144 4 0  146 4 0  148 4 0  150 4 0  152 4 0  154 4 0  156 4 0  158 4 0  160 4 0  162 4 0  164 4 0  166 4 0  168 4 0  170 4 0  172 4 0  174 4 0  176 4 0  178 4 0  180 4 0  182 4 0  184 4 0  186 4 0  188 4 0  190 4 0  192 4 0  194 4 0  196 4 0  198 4 0  200 4 0  0 6 0  2 6 0  4 6 0  6 6 0  8 6 0  10 6 0  12 6 0  14 6 0  16 6 0  18 6 0  20 6 0  22 6 0  24 6 0  26 6 0  28 6 0  30 6 0  32 6 0  34 6 0  36 6 0  38 6 0  40 6 0  42 6 0  44 6 0  46 6 0  48 6 0  50 6 0  52 6 0  54 6 0  56 6 0  58 6 0  60 6 0  62 6 0  64 6 0  66 6 0  68 6 0  70 6 0  72 6 0  74 6 0  76 6 0  78 6 0  80 6 0  82 6 0  84 6 0  86 6 0  88 6 0  90 6 0  92 6 0  94 6 0  96 6 0  98 6 0  100 6 0  102 6 0  104 6 0  106 6 0  108 6 0  110 6 0  112 6 0  114 6 0  116 6 0  118 6 0  120 6 0  122 6 0  124 6 0  126 6 0  128 6 0  130 6 0  132 6 0  134 6 0  136 6 0  138 6 0  140 6 0  142 6 0  144 6 0  146 6 0  148 6 0  150 6 0  152 6 0  154 6 0  156 6 0  158 6 0  160 6 0  162 6 0  164 6 0  166 6 0  168 6 0  170 6 0  172 6 0  174 6 0  176 6 0  178 6 0  180 6 0  182 6 0  184 6 0  186 6 0  188 6 0  190 6 0  192 6 0  194 6 0  196 6 0  198 6 0  200 6 0  0 8 0  2 8 0  4 8 0  6 8 0  8 8 0  10 8 0  12 8 0  14 8 0  16 8 0  18 8 0  20 8 0  22 8 0  24 8 0  26 8 0  28 8 0  30 8 0  32 8 0  34 8 0  36 8 0  38 8 0  40 8 0  42 8 0  44 8 0  46 8 0  48 8 0  50 8 0  52 8 0  54 8 0  56 8 0  58 8 0  60 8 0  62 8 0  64 8 0  66 8 0  68 8 0  70 8 0  72 8 0  74 8 0  76 8 0  78 8 0  80 8 0  82 8 0  84 8 0  86 8 0  88 8 0  90 8 0  92 8 0  94 8 0  96 8 0  98 8 0  100 8 0  102 8 0  104 8 0  106 8 0  108 8 0  110 8 0  112 8 0  114 8 0  116 8 0  118 8 0  120 8 0  122 8 0  124 8 0  126 8 0  128 8 0  130 8 0  132 8 0  134 8 0  136 8 0  138 8 0  140 8 0  142 8 0  144 8 0  146 8 0  148 8 0  150 8 0  152 8 0  154 8 0  156 8 0  158 8 0  160 8 0  162 8 0  164 8 0  166 8 0  168 8 0  170 8 0  172 8 0  174 8 0  176 8 0  178 8 0  180 8 0  182 8 0  184 8 0  186 8 0  188 8 0  190 8 0  192 8 0  194 8 0  196 8 0  198 8 0  200 8 0  0 10 0  2 10 0  4 10 0  6 10 0  8 10 0  10 10 0  12 10 0  14 10 0  16 10 0  18 10 0  20 10 0  22 10 0  24 10 0  26 10 0  28 10 0  30 10 0  32 10 0  34 10 0  36 10 0  38 10 0  40 10 0  42 10 0  44 10 0  46 10 0  48 10 0  50 10 0  52 10 0  54 10 0  56 10 0  58 10 0  60 10 0  62 10 0  64 10 0  66 10 0  68 10 0  70 10 0  72 10 0  74 10 0  76 10 0  78 10 0  80 10 0  82 10 0  84 10 0  86 10 0  88 10 0  90 10 0  92 10 0  94 10 0  96 10 0  98 10 0  100 10 0  102 10 0  104 10 0  106 10 0  108 10 0  110 10 0  112 10 0  114 10 0  116 10 0  118 10 0  120 10 0  122 10 0  124 10 0  126 10 0  128 10 0  130 10 0  132 10 0  134 10 0  136 10 0  138 10 0  140 10 0  142 10 0  144 10 0  146 10 0  148 10 0  150 10 0  152 10 0  154 10 0  156 10 0  158 10 0  160 10 0  162 10 0  164 10 0  166 10 0  168 10 0  170 10 0  172 10 0  174 10 0  176 10 0  178 10 0  180 10 0  182 10 0  184 10 0  186 10 0  188 10 0  190 10 0  192 10 0  194 10 0  196 10 0  198 10 0  200 10 0  0 12 0  2 12 0  4 12 0  6 12 0  8 12 0  10 12 0  12 12 0  14 12 0  16 12 0  18 12 0  20 12 0  22 12 0  24 12 0  26 12 0  28 12 0  30 12 0  32 12 0  34 12 0  36 12 0  38 12 0  40 12 0  42 12 0  44 12 0  46 12 0  48 12 0  50 12 0  52 12 0  54 12 0  56 12 0  58 12 0  60 12 0  62 12 0  64 12 0  66 12 0  68 12 0  70 12 0  72 12 0  74 12 0  76 12 0  78 12 0  80 12 0  82 12 0  84 12 0  86 12 0  88 12 0  90 12 0  92 12 0  94 12 0  96 12 0  98 12 0  100 12 0  102 12 0  104 12 0  106 12 0  108 12 0  110 12 0  112 12 0  114 12 0  116 12 0  118 12 0  120 12 0  122 12 0  124 12 0  126 12 0  128 12 0  130 12 0  132 12 0  134 12 0  136 12 0  138 12 0  140 12 0  142 12 0  144 12 0  146 12 0  148 12 0  150 12 0  152 12 0  154 12 0  156 12 0  158 12 0  160 12 0  162 12 0  164 12 0  166 12 0  168 12 0  170 12 0  172 12 0  174 12 0  176 12 0  178 12 0  180 12 0  182 12 0  184 12 0  186 12 0  188 12 0  190 12 0  192 12 0  194 12 0  196 12 0  198 12 0  200 12 0  0 14 0  2 14 0  4 14 0  6 14 0  8 14 0  10 14 0  12 14 0  14 14 0  16 14 0  18 14 0  20 14 0  22 14 0  24 14 0  26 14 0  28 14 0  30 14 0  32 14 0  34 14 0  36 14 0  38 14 0  40 14 0  42 14 0  44 14 0  46 14 0  48 14 0  50 14 0  52 14 0  54 14 0  56 14 0  58 14 0  60 14 0  62 14 0  64 14 0  66 14 0  68 14 0  70 14 0  72 14 0  74 14 0  76 14 0  78 14 0  80 14 0  82 14 0  84 14 0  86 14 0  88 14 0  90 14 0  92 14 0  94 14 0  96 14 0  98 14 0  100 14 0  102 14 0  104 14 0  106 14 0  108 14 0  110 14 0  112 14 0  114 14 0  116 14 0  118 14 0  120 14 0  122 14 0  124 14 0  126 14 0  128 14 0  130 14 0  132 14 0  134 14 0  136 14 0  138 14 0  140 14 0  142 14 0  144 14 0  146 14 0  148 14 0  150 14 0  152 14 0  154 14 0  156 14 0  158 14 0  160 14 0  162 14 0  164 14 0  166 14 0  168 14 0  170 14 0  172 14 0  174 14 0  176 14 0  178 14 0  180 14 0  182 14 0  184 14 0  186 14 0  188 14 0  190 14 0  192 14 0  194 14 0  196 14 0  198 14 0  200 14 0  0 16 0  2 16 0  4 16 0  6 16 0  8 16 0  10 16 0  12 16 0  14 16 0  16 16 0  18 16 0  20 16 0  22 16 0  24 16 0  26 16 0  28 16 0  30 16 0  32 16 0  34 16 0  36 16 0  38 16 0  40 16 0  42 16 0  44 16 0  46 16 0  48 16 0  50 16 0  52 16 0  54 16 0  56 16 0  58 16 0  60 16 0  62 16 0  64 16 0  66 16 0  68 16 0  70 16 0  72 16 0  74 16 0  76 16 0  78 16 0  80 16 0  82 16 0  84 16 0  86 16 0  88 16 0  90 16 0  92 16 0  94 16 0  96 16 0  98 16 0  100 16 0  102 16 0  104 16 0  106 16 0  108 16 0  110 16 0  112 16 0  114 16 0  116 16 0  118 16 0  120 16 0  122 16 0  124 16 0  126 16 0  128 16 0  130 16 0  132 16 0  134 16 0  136 16 0  138 16 0  140 16 0  142 16 0  144 16 0  146 16 0  148 16 0  150 16 0  152 16 0  154 16 0  156 16 0  158 16 0  160 16 0  162 16 0  164 16 0  166 16 0  168 16 0  170 16 0  172 16 0  174 16 0  176 16 0  178 16 0  180 16 0  182 16 0  184 16 0  186 16 0  188 16 0  190 16 0  192 16 0  194 16 0  196 16 0  198 16 0  200 16 0  0 18 0  2 18 0  4 18 0  6 18 0  8 18 0  10 18 0  12 18 0  14 18 0  16 18 0  18 18 0  20 18 0  22 18 0  24 18 0  26 18 0  28 18 0  30 18 0  32 18 0  34 18 0  36 18 0  38 18 0  40 18 0  42 18 0  44 18 0  46 18 0  48 18 0  50 18 0  52 18 0  54 18 0  56 18 0  58 18 0  60 18 0  62 18 0  64 18 0  66 18 0  68 18 0  70 18 0  72 18 0  74 18 0  76 18 0  78 18 0  80 18 0  82 18 0  84 18 0  86 18 0  88 18 0  90 18 0  92 18 0  94 18 0  96 18 0  98 18 0  100 18 0  102 18 0  104 18 0  106 18 0  108 18 0  110 18 0  112 18 0  114 18 0  116 18 0  118 18 0  120 18 0  122 18 0  124 18 0  126 18 0  128 18 0  130 18 0  132 18 0  134 18 0  136 18 0  138 18 0  140 18 0  142 18 0  144 18 0  146 18 0  148 18 0  150 18 0  152 18 0  154 18 0  156 18 0  158 18 0  160 18 0  162 18 0  164 18 0  166 18 0  168 18 0  170 18 0  172 18 0  174 18 0  176 18 0  178 18 0  180 18 0  182 18 0  184 18 0  186 18 0  188 18 0  190 18 0  192 18 0  194 18 0  196 18 0  198 18 0  200 18 0  0 20 0  2 20 0  4 20 0  6 20 0  8 20 0  10 20 0  12 20 0  14 20 0  16 20 0  18 20 0  20 20 0  22 20 0  24 20 0  26 20 0  28 20 0  30 20 0  32 20 0  34 20 0  36 20 0  38 20 0  40 20 0  42 20 0  44 20 0  46 20 0  48 20 0  50 20 0  52 20 0  54 20 0  56 20 0  58 20 0  60 20 0  62 20 0  64 20 0  66 20 0  68 20 0  70 20 0  72 20 0  74 20 0  76 20 0  78 20 0  80 20 0  82 20 0  84 20 0  86 20 0  88 20 0  90 20 0  92 20 0  94 20 0  96 20 0  98 20 0  100 20 0  102 20 0  104 20 0  106 20 0  108 20 0  110 20 0  112 20 0  114 20 0  116 20 0  118 20 0  120 20 0  122 20 0  124 20 0  126 20 0  128 20 0  130 20 0  132 20 0  134 20 0  136 20 0  138 20 0  140 20 0  142 20 0  144 20 0  146 20 0  148 20 0  150 20 0  152 20 0  154 20 0  156 20 0
[...]
<PointData  Scalars="C"> 
<DataArray  type="Float64"  Name="C"  format="ascii">-2.9097163175724432e-11  1.5174622688656820e-10  -7.9415914862506547e-10  2.9345327423616635e-09  -8.1830713603860351e-09  1.8822465193260917e-08  -3.5747440750429750e-08  2.3517878836243931e-08  1.9579119144626726e-07  -7.8820905345589563e-07  6.4198002556019617e-07  4.1279300178726267e-06  -1.9086197867402615e-05  4.3438216721456190e-05  -4.5937467146645935e-05  -2.7675215404801660e-05  1.2799844357832090e-04  -6.0615067892818871e-05  -1.5631858399615611e-04  1.7940819350663301e-04  2.3929585849780823e-04  -6.1986624706902816e-04  -1.6156137896590310e-03  -1.5681219049946250e-03  -5.6679412494368736e-04  1.1759800270070455e-04  4.3156781085326447e-04  5.4411725578790463e-04  4.1044398390360445e-04  -1.1553974520857847e-04  -6.5822951336956634e-04  -1.5594821617469835e-03  -2.5343553837419799e-03  -2.8784890047659998e-03  -1.7362256331901031e-03  5.2887892537081695e-05  9.3159909817334822e-04  1.1497529307818251e-03  3.0788575712089672e-04  -3.4031605847189943e-04  -3.5363185014233650e-04  1.3251975504212073e-04  1.4564234018678773e-04  -5.9098776525291194e-05  -2.8851493949940631e-05  1.1717004911417252e-05  2.8896281873051204e-06  -1.5525309263310600e-06  -1.0507295594604197e-07  1.4596828448464591e-08  -5.9141038698480791e-08  -8.2458076234745620e-08  -7.5760822829104759e-09  4.9862118528539183e-07  -1.7994065880950067e-06  1.4727287873232947e-06  1.1102328409507335e-05  -5.4063443381985980e-05  1.2621375203462879e-04  -1.2776706180271674e-04  -1.2050585246013708e-04  4.5566985866482616e-04  -9.4894782046821226e-05  -7.5675791977914645e-04  -4.7177475617002033e-05  1.3843216459785376e-03  7.7359228162787535e-04  -1.2434607036982872e-03  -2.0057555547156993e-03  -1.7741236193127173e-03  -1.3553457458119731e-03  -6.9502434833235854e-04  1.9934134705703593e-04  9.2110579371322467e-04  1.3056084119747798e-03  1.0900302145522150e-03  -2.2445257406337842e-05  -2.1411190433823068e-03  -3.1343577638351878e-03  -2.9977586150529457e-03  -2.0731753359645002e-03  6.4699062693104328e-04  2.3118285128170026e-03  1.1604247734646300e-03  -8.1533561115070810e-04  -7.3872724940230784e-04  3.4676704893717809e-04  1.8008731026978358e-04  -1.0612019614321293e-04  -2.1247982229188902e-05  1.6053064006630332e-05  4.7093201267170225e-07  -1.5075862474995016e-06  3.8241258438392276e-07  -4.2182841741514374e-08  -1.9995331038841538e-07  -5.8013748146403383e-08  -4.7947685987034387e-08  1.0125125566086468e-06  -7.5452335533531783e-06  1.1000474460305703e-05  -2.6258458008009002e-11  1.0046630536114245e-11  2.1645149325977097e-10  -1.3033861147618282e-09  4.1206986044460396e-09  -1.0332764194109306e-08  2.9640499138880855e-08  -7.9314682036055258e-08  3.3629988333145801e-08  7.3582279602093920e-07  -3.1311409654268053e-06  6.9795041270197495e-06  -9.0342835634730991e-06  -4.5707945106447582e-06  5.2274270460608012e-05  -1.0582030559524036e-04  3.3446889500038524e-05  2.3278688521824863e-04  -3.4433686124651225e-04  -7.2370119030892876e-04  3.7185083753826976e-04  1.9405017108744432e-03  2.4280139205950482e-03  1.8910113043472745e-03  6.1753687178881780e-04  -5.1291071400186132e-04  -1.1350716708232410e-03  -8.8795245340526322e-04  -3.7142592800898041e-04  7.1309751039822910e-04  1.7725071361618253e-03  2.4732648714711233e-03  2.8945196072165747e-03  2.7878431769761563e-03  1.1855496747215370e-03  -1.4715955862728159e-03  -2.0514737529100258e-03  -9.2374367744873023e-04  7.8425476037009443e-04  6.2811609000892237e-04  -9.2524333784025061e-05  -1.8001618922099306e-04  -5.7648409631065744e-06  6.9203978106544429e-05  -1.4451039211244500e-06  -1.2256436019601830e-05  1.7186896790842142e-06  1.2338834089184481e-06  -2.0252504192745334e-07  5.5337320385781888e-08  1.0440799528224260e-07  5.5023550171585574e-08  -7.6268595059539964e-08  -2.1962413014056253e-07  1.7211668443276736e-06  -3.3404477065452824e-06  -5.2356636046611586e-06  4.8162792813208195e-05  -1.4074424203883786e-04  1.8944022464379684e-04  6.8662081176087026e-05  -5.4629985427231563e-04  2.9420313680413924e-04  8.6704907040507169e-04  -3.6356691577573455e-04  -1.7804021520091264e-03  -3.5090146662055592e-04  1.8306376558683416e-03  2.3316639041064003e-03  2.2334717241016266e-03  1.7898390399932516e-03  8.4047347892263072e-04  -2.1136253099381889e-04  -1.0186128273900451e-03  -1.4625003034208967e-03  -8.6616177970403468e-04  3.2300559014044412e-04  2.0252845122196821e-03  3.0003850648026094e-03  3.2592285626363276e-03  2.4904677871510276e-03  -9.0968182239401028e-04  -2.6775775553455877e-03  -1.1652690686707434e-03  1.2685855609380389e-03  8.8088177473638824e-04  -4.8660409315855820e-04  -1.6479181583854580e-04  1.3828911052513157e-04  6.1072952037922403e-07  -1.8510969124617843e-05  3.3475570451774918e-06  1.1195450331919813e-06  -6.7867676727988421e-07  2.2526654361752920e-07  2.3788628385703824e-07  1.9180646995712774e-08  -1.1272309103957649e-07  3.8879232465484443e-08  3.7182805513923955e-06  -1.1264001135863728e-05  -1.6991169263585920e-11  1.0841998740597826e-10  -8.2665160206798878e-10  3.7683328917261785e-09  -1.0828789004229799e-08  2.0695087845005060e-08  -3.8643054615043800e-08  1.0514662315060566e-07  -1.6116078893794226e-07  -5.0035720882614427e-07  2.9330734306995144e-06  -7.0055331351757446e-06  1.1224417759224976e-05  -3.3432585989318250e-06  -5.1631302073740703e-05  1.3557696238270260e-04  -1.6354056765711602e-04  -1.9887414856009240e-04  9.5219374789229242e-04  1.3882075421981944e-03  -1.2493954889180683e-04  -2.6679774921507062e-03  -3.2547743312438104e-03  -2.4403173105903390e-03  -1.3714450354134066e-03  -6.0456171322113134e-04  6.2120932351782089e-04  1.2037386552312672e-03  1.0445791343476119e-03  1.2172838958481680e-04  -1.8655950374815613e-03  -3.3107279729397599e-03  -3.6136956110878284e-03  -3.1720698166910611e-03  -8.9128040570313411e-04  2.3688026859022796e-03  3.1616983563846879e-03  6.8207955499597251e-04  -1.7129498958470552e-03  -1.2391944665341281e-03  5.2092282374323286e-04  4.0172754279394141e-04  -8.6899177699410670e-05  -8.3757047888481745e-05  2.7965792866309720e-05  1.3589031671511442e-05  -6.3424744143121803e-06  -2.9579481976225992e-07  2.8484964029727185e-07  -1.9849221093381790e-07  -1.8630871811264441e-07  -5.6995724612197623e-08  1.0585939376113205e-07  2.9303280551776327e-07  -2.8810734889041901e-06  7.5432179101943229e-06  1.9500593595340664e-06  -6.2728471679723965e-05  2.2089775335655849e-04  -3.7347929116035876e-04  9.7556822364965769e-05  6.4798310887754628e-04  -9.9103435483250974e-04  -6.0458173095542095e-04  1.4985648958974259e-03  2.0243878565169965e-03  -4.0329939499939151e-04  -2.7694089387334075e-03  -3.4871514442214773e-03  -3.1757868199286661e-03  -1.7888364445379551e-03  -2.9134462303627851e-04  6.9591362499755766e-04  9.6177573072130736e-04  5.6343901972770493e-04  -2.4850824950498979e-04  -8.0123333365298528e-04  -2.2519935691896979e-03  -2.9898756489437823e-03  -3.3951492176707218e-03  -1.8463867704234830e-03  1.5993096129746788e-03  3.3462573414993566e-03  9.5949905741861050e-04  -2.1036104010376741e-03  -1.0779516549482859e-03  1.0308708156319640e-03  2.5210483982063947e-04  -2.5455159835903289e-04  2.3420326112757620e-05  2.6123110847228634e-05  -9.9695252339089531e-06  3.5151618442493850e-08  1.2290021421299282e-06  -6.5440921904904408e-07  -4.0116282605116540e-07  5.9128572281366745e-08  8.0652483391486431e-08  9.9512206769723645e-08  -3.9924657838601793e-06  1.6598957056408712e-05  1.6889949268553436e-11  -1.6277982127711466e-10  1.4917138970408586e-09  -7.7430095899495984e-09  2.3609578164626967e-08  -4.4386655628934449e-08  5.9904585088179355e-08  -1.3410593909169467e-07  2.0265201309026526e-07  9.5687218347014870e-07  -4.9377764577552290e-06  1.0056645855765314e-05  -1.3471320860041544e-05  -7.0799570882453619e-06  1.0507182373583881e-04  -1.6983951729057859e-04  4.2160498855914531e-04  7.4772327560260589e-04  -9.0231866927001987e-04  -2.3329475880470890e-03  -1.9296404524999195e-03  1.6832850701693036e-03  2.5695833569040010e-03  3.1553348588092495e-03  3.9813167121330968e-03  4.9576940140495752e-03  5.6880443339190657e-03  6.0837938246434296e-03  6.0614835490888259e-03  5.5723797532472429e-03  4.5546018931319930e-03  3.6006232648475231e-03  3.4836513934624713e-03  3.7572693590443664e-03  2.9787319678620731e-03  -3.0734581674109716e-03  -3.7821557398984560e-03  -3.1758596402780604e-04  3.1302449121224153e-03  1.5090343141378763e-03  -1.4015764411609898e-03  -8.1267829396174411e-04  3.5693083591494082e-04  1.2422537143642513e-04  -6.4033589665841656e-05  -6.0340979240121522e-07  1.2695129054624356e-05  -2.4233562226954913e-06  4.3584882560935804e-07  3.8735274313042384e-07  3.1169441149605957e-07  7.4064760268808816e-08  -1.8409286942561440e-07  -1.9402869608230662e-07  4.6949005839197641e-06  -1.6036010594917674e-05  1.6108110934250239e-05  5.5675520088188341e-05  -2.6464174437714014e-04  5.8934606508996654e-04  -5.0485366475539655e-04  -3.6774602486808200e-04  1.8987463122806733e-03  1.6513372642087065e-04  -2.6533123350557354e-03  -3.0088689114778078e-03  1.3147422176621926e-03  3.1855149449593755e-03  3.4746187019736962e-03  3.9336890256828653e-03  4.9424432140166164e-03  5.7108940979915396e-03  6.0513235047592708e-03  5.9593170767715600e-03  5.4744650114528772e-03  4.6368571209872735e-03  3.6168036697407468e-03  2.9403784126056922e-03  2.8097684428983502e-03  2.2111881773622917e-03  7.9663627908518626e-04  -2.1325459602868002e-03  -3.2676029549949565e-03  3.4195408340454228e-04  2.9312777344879361e-03  6.5404355000085940e-04  -1.7741321605889064e-03  -1.0422320937542570e-04  5.0347168490175143e-04  -8.7718622403144488e-05  -3.3315659091318769e-05  2.0762500016938833e-05  -4.0885489207628907e-06  -1.2834671782684851e-06  1.4859892913180563e-06  5.7950727001022615e-07  -2.1305340409552666e-07  -1.1111691225422494e-07  -1.5894030159492193e-07  4.1658867204758787e-06  -2.1924162265414296e-05  -6.4169482714134848e-11  3.1350096046250123e-10  -2.9519390636578981e-09  1.6103985467032929e-08  -5.2414085431813697e-08  9.7028238076939500e-08  -9.4473574622036068e-08  1.4177247725635494e-07  -1.2512153762973738e-07  -2.0997244465473450e-06  9.1779298064326591e-06  -1.2968862309616590e-05  7.4350254240472389e-06  4.3311805587598188e-05  -2.3336005673962645e-04  4.3476756018355153e-04  -3.1064820464914481e-04  -1.8920303799802021e-03  -8.0547395255232577e-04  1.8098770586658238e-03  3.3986909629880342e-03  5.7634070479486467e-03  7.9630516696411312e-03  1.1739178519317205e-02  1.6638037097753890e-02  2.1581729309134181e-02  2.5632518440089857e-02  2.8061302105565119e-02  2.8379494985808662e-02  2.6511226596992468e-02  2.2856189620984922e-02  1.8091875309113624e-02  1.3085965870944424e-02  8.9097119212956568e-03  6.0278194333732811e-03  3.3426730692459258e-03  3.4036478423755943e-03  2.7705018564355018e-03  -4.2124892498222027e-03  -1.2970621339985305e-03  2.7795660133219961e-03  8.8120966393366920e-04  -1.2397496178913915e-03  -1.3817065694623308e-04  1.9585427830604504e-04  -1.0991194266979914e-05  -1.3305605291932825e-05  7.6775401663551855e-06  -2.3102461800832402e-06  -3.0521769458117353e-07  -6.1932211576672905e-07  -6.9310869984392329e-08  3.0056163594778396e-07  -9.5728956955669895e-08  -5.4065417730591268e-06  3.1012063772470635e-05  -5.0315223936092768e-05  -5.9459031799514271e-07  2.1894537003694240e-04  -6.7364117470755593e-04  1.2637183936800821e-03  -2.1394424898171696e-05  -3.1968704701104207e-03  5.7577547029257154e-04  2.3929388901884107e-03  3.6948211064886894e-03  6.0374012021623645e-03  8.7842238801751696e-03  1.2927616165883183e-02  1.7898333167925055e-02  2.2623135629538476e-02  2.6229553312058833e-02  2.8057597284870870e-02  2.7741226712972755e-02  2.5350186893393457e-02  2.1357161633599422e-02  1.6483378137522001e-02  1.1655509884736584e-02  7.9510669679400906e-03  5.6812000135586498e-03  3.4205114491921919e-03  2.3533532784886036e-03  2.1371479098031116e-03  -1.2366778706034089e-03  -2.9019289595318448e-03  8.1774726935253395e-04  2.1714639776670907e-03  -6.3919256424920228e-04  -7.3212688795776389e-04  3.1930961679943270e-04  3.0509419152174915e-05  -3.9382884458577554e-05  1.3451232555458173e-05  -2.1121324615667057e-07  -2.6095156255724164e-06  -6.9899377952293250e-07  5.3073819373635095e-07  1.3172586807640599e-07  2.3321056910758569e-07  -4.4917939207028992e-06  2.7272019786435463e-05  1.2378649753740069e-10  -5.7584986196515576e-10  5.5597544989267052e-09  -3.3394033159445954e-08  1.1516955209171790e-07  -2.1065107392931275e-07  1.4521647375118189e-07  1.0701683084246783e-07  -3.0422179845587193e-07  6.4372305306270894e-06  -1.8624454031695951e-05  2.0042702682368573e-05  1.8210124598161954e-05  -4.0066094043375034e-06  7.6513443587953797e-04  -1.0245380260019514e-03  -1.0437454329437802e-03  2.1381776934984546e-03  4.4839455211355553e-03  8.5793929581284203e-03  2.0048250840175953e-02  5.1003601601342444e-02  1.0669543292905538e-01  1.7232678706458684e-01  2.2969689766670529e-01  2.7324789596624000e-01  3.0345254974191171e-01  3.2010554001713981e-01  3.2225106506723050e-01  3.0967834694171809e-01  2.8319265964865981e-01  2.4335906085337311e-01  1.8967502918814844e-01  1.2502362627390701e-01  6.4479620396809378e-02  2.6361250599387192e-02  1.0696893666337305e-02  5.3063276996218271e-03  3.0727707288219852e-03  3.4389130726306984e-03  -3.5026546899084871e-03  -3.7637653342504149e-04  2.3670261677133744e-03  -2.0896908694439169e-04  -5.2430773136559223e-04  1.4666357047694476e-04  3.7579008463805002e-05  -1.3931589950920217e-05  6.5581171724089585e-06  2.0604618313640197e-07  1.3340578339974473e-06  -8.7096081440569871e-08  -2.7165014779547054e-07  1.0770170298239787e-06  6.0757416210241085e-06  -4.7026432814312168e-05  1.1347058430237662e-04  -1.3578730160645686e-04  2.1329105628669787e-05  8.8976131652404426e-04  -2.3574560811702294e-03  7.7262473285414929e-04  2.4646313287350749e-03  5.3405759315560044e-03  1.0390606592089735e-02  2.5954519066820288e-02  6.3699233144992068e-02  1.2388184353109487e-01  1.8836528921359361e-01  2.4188132574291837e-01  2.8144842393398212e-01  3.0765696246074498e-01  3.2007696740706071e-01  3.1798660463988421e-01  3.0158041785351991e-01  2.7170988098699927e-01  2.2845227661394354e-01  1.7128535434229977e-01  1.0587581105318324e-01  5.0519992276823002e-02  1.9864044651458641e-02  8.6886878713990073e-03  4.8215082432669781e-03  2.8360379939891046e-03  2.4082775165910337e-03  -1.9596366518400870e-03  -1.4837875956305155e-03  1.8569824351564047e-03  5.7220916027994032e-04  -6.9689770393980611e-04  1.1519556033507483e-04  7.5385487534213424e-05  -3.3650533322014025e-05  6.4426543353765784e-06  3.8414915618117123e-06  7.3031090782906430e-07  -1.0824491454648812e-06  -6.6753800115647532e-08  -3.3682092145613060e-07  4.9983374633155631e-06  -3.2692741200605007e-05  -1.7855177251201907e-10  6.6050679349614152e-10  -9.2986098614471109e-09  6.5072098943525948e-08  -2.4145448084364935e-07  4.7792565235526107e-07  -7.4833799827096855e-08  -6.4086817861604648e-07  3.3270617050264585e-06  -1.4884155271821188e-05  4.7076920915386478e-05  -5.5029086978968913e-05  -1.5713518828180563e-05  1.9154028396948657e-04  -1.8636792366035835e-03  1.8582767439082599e-03  4.3498145656150171e-03  1.0491119393631787e-02  3.3058276144968521e-02  1.0250064158558486e-01  2.3952185746616067e-01  4.3762961031031133e-01  6.3418332959592061e-01  7.6075373135618118e-01  8.2513147907360740e-01  8.5800992195860626e-01  8.7585390784095030e-01  8.8446802323578244e-01  8.8552675067470421e-01  8.7916486614303879e-01  8.6423933871096104e-01  8.3654801645335675e-01  7.8352238333797652e-01  6.7767144573155380e-01  4.9788102958625519e-01  2.9248978768005318e-01  1.3664448864669626e-01  4.8475987338085350e-02  1.4824492532006862e-02  6.2131490286872863e-03  3.5145352609750728e-03  2.3864499044328217e-03  -3.1843041828946142e-03  1.2514511702014684e-03  9.0650450660130077e-04  -5.8193882329923808e-04  3.9687087134652800e-05  5.6363871406677403e-05  -1.5006232873122034e-05  1.4541502265793883e-07  -1.9397806534499749e-06  3.6705486848962001e-07  2.6299902721786585e-07  -7.2643427752729630e-07  9.2401368938832068e-08  6.8202878820857065e-05  -2.2235101812174475e-04  3.8218380644501501e-04  -4.9060336340542093e-04  -1.0881360451769025e-03  2.2895358916400518e-03  5.7808066571412159e-03  1.4372519589277512e-02  4.7607749069003037e-02  1.3484853322882068e-01  2.8966103529357695e-01  4.9464652756873234e-01  6.7524304761141574e-01  7.8199194297466457e-01  8.3541777557508023e-01  8.6320136170811090e-01  8.7811850540953429e-01  8.8446816072108436e-01  8.8342719339371256e-01  8.7485738508848288e-01  8.5704394432333741e-01  8.2408490023879877e-01  7.5934977420408567e-01  6.3214681210990620e-01  4.3540821535179242e-01  2.3799521410085914e-01  1.0173337558441418e-01  3.2792599220437375e-02  1.0598287363144797e-02  5.2568923125735547e-03  3.2386308703975012e-03  1.4145760983117837e-03  -2.3638650218085295e-03  5.3538434024723758e-04  1.0641800875783080e-03  -4.8392590266608317e-04  -9.0508817406178617e-06  8.2681011502728732e-05  -2.0543702386606705e-05  -3.1433257143174018e-06  -9.3913909623057005e-08  1.8521826351659463e-06  -1.5608383738427783e-07  5.1631596888298181e-07  -5.7374350856926853e-06  3.8288051015902877e-05  1.8900763597298219e-10  -2.1663070749360915e-10  1.1463514544542672e-08  -1.0865445610530580e-07  4.9297033836063249e-07  -9.0461996556981769e-07  2.3180938699249551e-07  4.1095266357944902e-06  -7.7302848374992601e-06  3.7814551931510526e-05  -1.1793424995529436e-04  2.2931461168619285e-04  -1.0054915923554061e-04  -9.4668185947531782e-05  3.0260043644014696e-03  8.7088305409632749e-03  2.9459890860941012e-02  1.1435062184808295e-01  3.1659910617678616e-01  5.9970706176081956e-01  8.1194255737580256e-01  9.2059265344269925e-01  9.6908988377269822e-01  9.8785244290425156e-01  9.9461745913694566e-01  9.9727802303004587e-01  9.9848216667326406e-01  9.9900946286263881e-01  9.9907117658348299e-01  9.9868423630209091e-01  9.9770425050386280e-01  9.9557934057953590e-01  9.9041399706516142e-01  9.7630977550589726e-01  9.3886371825925508e-01  8.5280330008727856e-01  6.7798769282257632e-01  4.0676974347416450e-01  1.6924349866932106e-01  4.9169257772373277e-02  1.3091887882527763e-02  5.5012496027594471e-03  3.6248352251075171e-03  -1.1111779629899008e-03  -7.7378631093217741e-04  1.2894402647277558e-03  -3.7633447337868719e-04  -4.0743136528299821e-05  6.3512606578309131e-05  -3.4374240107701477e-06  1.7965773301364217e-06  6.0444101414846635e-07  1.8932974020510999e-08  3.0429373490242065e-06  -9.4097297462177662e-06  -8.1443177266010464e-05  4.1924159511545517e-04  -8.9800626826255650e-04  1.0129091428943600e-03  3.9406786574012658e-03  1.2694400416974776e-02  4.8190392717820718e-02  1.6667806342176844e-01  4.0259710502477741e-01  6.7453231835461613e-01  8.5096704636803622e-01  9.3799397976787247e-01  9.7594031542598159e-01  9.9025467198591444e-01  9.9548787301512209e-01  9.9763116177552236e-01  9.9861560453763598e-01  9.9900368454341493e-01  9.9894218435777260e-01  9.9841380469482133e-01  9.9720410933017734e-01  9.9452230094155780e-01  9.8768692417843928e-01  9.6873395949008334e-01  9.1986527779565985e-01  8.1063551692863489e-01  5.9773642199791277e-01  3.1490440816226239e-01  1.1358995282262876e-01  2.9289593567626716e-02  8.8473135951478276e-03  4.5093856289271225e-03  3.0353039617348203e-03  -1.5210253568763593e-03  -7.2537191901912159e-04  1.1395043235538631e-03  -2.5971552340878961e-04  -6.7028657754339828e-05  6.4793395046629728e-05  5.0618003223110257e-07  -9.2649569256185059e-07  -1.7569280204476409e-06  3.3796194184715946e-07  -7.5873303682934544e-07  6.8023661219904785e-06  -4.4259585640524205e-05  -1.3875228799273307e-09  -6.7680485167679160e-11  -6.3974967574023736e-09  1.6416075156021577e-07  -7.9484393543493895e-07  2.0123430575317508e-06  1.3967968224597528e-06  -9.4004999879930073e-06  2.6003896945577956e-05  -8