<?xml version="1.0"?>
<VTKFile type="UnstructuredGrid"  version="0.1"  >
<UnstructuredGrid>
<Piece  NumberOfPoints="11156" NumberOfCells="22000">
<Points>
<DataArray  type="Float64"  NumberOfComponents="3"  format="ascii">0 0 0  2 0 0  4 0 0  6 0 0  8 0 0  10 0 0  12 0 0  14 0 0  16 0 0  18 0 0  20 0 0  22 0 0  24 0 0  26 0 0  28 0 0  30 0 0  32 0 0  34 0 0  36 0 0  38 0 0  40 0 0  42 0 0  44 0 0  46 0 0  48 0 0  50 0 0  52 0 0  54 0 0  56 0 0  58 0 0  60 0 0  62 0 0  64 0 0  66 0 0  68 0 0  70 0 0  72 0 0  74 0 0  76 0 0  78 0 0  80 0 0  82 0 0  84 0 0  86 0 0  88 0 0  90 0 0  92 0 0  94 0 0  96 0 0  98 0 0  100 0 0  102 0 0  104 0 0  106 0 0  108 0 0  110 0 0  112 0 0  114 0 0  116 0 0  118 0 0  120 0 0  122 0 0  124 0 0  126 0 0  128 0 0  130 0 0  132 0 0  134 0 0  136 0 0  138 0 0  140 0 0  142 0 0  144 0 0  146 0 0  148 0 0  150 0 0  152 0 0  154 0 0  156 0 0  158 0 0  160 0 0  162 0 0  164 0 0  166 0 0  168 0 0  170 0 0  172 0 0  174 0 0  176 0 0  178 0 0  180 0 0  182 0 0  184 0 0  186 0 0  188 0 0  190 0 0  192 0 0  194 0 0  196 0 0  198 0 0  200 0 0  0 2 0  2 2 0  4 2 0  6 2 0  8 2 0  10 2 0  12 2 0  14 2 0  16 2 0  18 2 0  20 2 0  22 2 0  24 2 0  26 2 0  28 2 0  30 2 0  32 2 0  34 2 0  36 2 0  38 2 0  40 2 0  42 2 0  44 2 0  46 2 0  48 2 0  50 2 0  52 2 0  54 2 0  56 2 0  58 2 0  60 2 0  62 2 0  64 2 0  66 2 0  68 2 0  70 2 0  72 2 0  74 2 0  76 2 0  78 2 0  80 2 0  82 2 0  84 2 0  86 2 0  88 2 0  90 2 0  92 2 0  94 2 0  96 2 0  98 2 0  100 2 0  102 2 0  104 2 0  106 2 0  108 2 0  110 2 0  112 2 0  114 2 0  116 2 0  118 2 0  120 2 0  122 2 0  124 2 0  126 2 0  128 2 0  130 2 0  132 2 0  134 2 0  136 2 0  138 2 0  140 2 0  142 2 0  144 2 0  146 2 0  148 2 0  150 2 0  152 2 0  154 2 0  156 2 0  158 2 0  160 2 0  162 2 0  164 2 0  166 2 0  168 2 0  170 2 0  172 2 0  174 2 0  176 2 0  178 2 0  180 2 0  182 2 0  184 2 0  186 2 0  188 2 0  190 2 0  192 2 0  194 2 0  196 2 0  198 2 0  200 2 0  0 4 0  2 4 0  4 4 0  6 4 0  8 4 0  10 4 0  12 4 0  14 4 0  16 4 0  18 4 0  20 4 0  22 4 0  24 4 0  26 4 0  28 4 0  30 4 0  32 4 0  34 4 0  36 4 0  38 4 0  40 4 0  42 4 0  44 4 0  46 4 0  48 4 0  50 4 0  52 4 0  54 4 0  56 4 0  58 4 0  60 4 0  62 4 0  64 4 0  66 4 0  68 4 0  70 4 0  72 4 0  74 4 0  76 4 0  78 4 0  80 4 0  82 4 0  84 4 0  86 4 0  88 4 0  90 4 0  92 4 0  94 4 0  96 4 0  98 4 0  100 4 0  102 4 0  104 4 0  106 4 0  108 4 0  110 4 0  112 4 0  114 4 0  116 4 0  118 4 0  120 4 0  122 4 0  124 4 0  126 4 0  128 4 0  130 4 0  132 4 0  134 4 0  136 4 0  138 4 0  140 4 0  142 4 0  144 4 0  146 4 0  148 4 0  150 4 0  152 4 0  154 4 0  156 4 0  158 4 0  160 4 0  162 4 0  164 4 0  166 4 0  168 4 0  170 4 0  172 4 0  174 4 0  176 4 0  178 4 0  180 4 0  182 4 0  184 4 0  186 4 0  188 4 0  190 4 0  192 4 0  194 4 0  196 4 0  198 4 0  200 4 0  0 6 0  2 6 0  4 6 0  6 6 0  8 6 0  10 6 0  12 6 0  14 6 0  16 6 0  18 6 0  20 6 0  22 6 0  24 6 0  26 6 0  28 6 0  30 6 0  32 6 0  34 6 0  36 6 0  38 6 0  40 6 0  42 6 0  44 6 0  46 6 0  48 6 0  50 6 0  52 6 0  54 6 0  56 6 0  58 6 0  60 6 0  62 6 0  64 6 0  66 6 0  68 6 0  70 6 0  72 6 0  74 6 0  76 6 0  78 6 0  80 6 0  82 6 0  84 6 0  86 6 0  88 6 0  90 6 0  92 6 0  94 6 0  96 6 0  98 6 0  100 6 0  102 6 0  104 6 0  106 6 0  108 6 0  110 6 0  112 6 0  114 6 0  116 6 0  118 6 0  120 6 0  122 6 0  124 6 0  126 6 0  128 6 0  130 6 0  132 6 0  134 6 0  136 6 0  138 6 0  140 6 0  142 6 0  144 6 0  146 6 0  148 6 0  150 6 0  152 6 0  154 6 0  156 6 0  158 6 0  160 6 0  162 6 0  164 6 0  166 6 0  168 6 0  170 6 0  172 6 0  174 6 0  176 6 0  178 6 0  180 6 0  182 6 0  184 6 0  186 6 0  188 6 0  190 6 0  192 6 0  194 6 0  196 6 0  198 6 0  200 6 0  0 8 0  2 8 0  4 8 0  6 8 0  8 8 0  10 8 0  12 8 0  14 8 0  16 8 0  18 8 0  20 8 0  22 8 0  24 8 0  26 8 0  28 8 0  30 8 0  32 8 0  34 8 0  36 8 0  38 8 0  40 8 0  42 8 0  44 8 0  46 8 0  48 8 0  50 8 0  52 8 0  54 8 0  56 8 0  58 8 0  60 8 0  62 8 0  64 8 0  66 8 0  68 8 0  70 8 0  72 8 0  74 8 0  76 8 0  78 8 0  80 8 0  82 8 0  84 8 0  86 8 0  88 8 0  90 8 0  92 8 0  94 8 0  96 8 0  98 8 0  100 8 0  102 8 0  104 8 0  106 8 0  108 8 0  110 8 0  112 8 0  114 8 0  116 8 0  118 8 0  120 8 0  122 8 0  124 8 0  126 8 0  128 8 0  130 8 0  132 8 0  134 8 0  136 8 0  138 8 0  140 8 0  142 8 0  144 8 0  146 8 0  148 8 0  150 8 0  152 8 0  154 8 0  156 8 0  158 8 0  160 8 0  162 8 0  164 8 0  166 8 0  168 8 0  170 8 0  172 8 0  174 8 0  176 8 0  178 8 0  180 8 0  182 8 0  184 8 0  186 8 0  188 8 0  190 8 0  192 8 0  194 8 0  196 8 0  198 8 0  200 8 0  0 10 0  2 10 0  4 10 0  6 10 0  8 10 0  10 10 0  12 10 0  14 10 0  16 10 0  18 10 0  20 10 0  22 10 0  24 10 0  26 10 0  28 10 0  30 10 0  32 10 0  34 10 0  36 10 0  38 10 0  40 10 0  42 10 0  44 10 0  46 10 0  48 10 0  50 10 0  52 10 0  54 10 0  56 10 0  58 10 0  60 10 0  62 10 0  64 10 0  66 10 0  68 10 0  70 10 0  72 10 0  74 10 0  76 10 0  78 10 0  80 10 0  82 10 0  84 10 0  86 10 0  88 10 0  90 10 0  92 10 0  94 10 0  96 10 0  98 10 0  100 10 0  102 10 0  104 10 0  106 10 0  108 10 0  110 10 0  112 10 0  114 10 0  116 10 0  118 10 0  120 10 0  122 10 0  124 10 0  126 10 0  128 10 0  130 10 0  132 10 0  134 10 0  136 10 0  138 10 0  140 10 0  142 10 0  144 10 0  146 10 0  148 10 0  150 10 0  152 10 0  154 10 0  156 10 0  158 10 0  160 10 0  162 10 0  164 10 0  166 10 0  168 10 0  170 10 0  172 10 0  174 10 0  176 10 0  178 10 0  180 10 0  182 10 0  184 10 0  186 10 0  188 10 0  190 10 0  192 10 0  194 10 0  196 10 0  198 10 0  200 10 0  0 12 0  2 12 0  4 12 0  6 12 0  8 12 0  10 12 0  12 12 0  14 12 0  16 12 0  18 12 0  20 12 0  22 12 0  24 12 0  26 12 0  28 12 0  30 12 0  32 12 0  34 12 0  36 12 0  38 12 0  40 12 0  42 12 0  44 12 0  46 12 0  48 12 0  50 12 0  52 12 0  54 12 0  56 12 0  58 12 0  60 12 0  62 12 0  64 12 0  66 12 0  68 12 0  70 12 0  72 12 0  74 12 0  76 12 0  78 12 0  80 12 0  82 12 0  84 12 0  86 12 0  88 12 0  90 12 0  92 12 0  94 12 0  96 12 0  98 12 0  100 12 0  102 12 0  104 12 0  106 12 0  108 12 0  110 12 0  112 12 0  114 12 0  116 12 0  118 12 0  120 12 0  122 12 0  124 12 0  126 12 0  128 12 0  130 12 0  132 12 0  134 12 0  136 12 0  138 12 0  140 12 0  142 12 0  144 12 0  146 12 0  148 12 0  150 12 0  152 12 0  154 12 0  156 12 0  158 12 0  160 12 0  162 12 0  164 12 0  166 12 0  168 12 0  170 12 0  172 12 0  174 12 0  176 12 0  178 12 0  180 12 0  182 12 0  184 12 0  186 12 0  188 12 0  190 12 0  192 12 0  194 12 0  196 12 0  198 12 0  200 12 0  0 14 0  2 14 0  4 14 0  6 14 0  8 14 0  10 14 0  12 14 0  14 14 0  16 14 0  18 14 0  20 14 0  22 14 0  24 14 0  26 14 0  28 14 0  30 14 0  32 14 0  34 14 0  36 14 0  38 14 0  40 14 0  42 14 0  44 14 0  46 14 0  48 14 0  50 14 0  52 14 0  54 14 0  56 14 0  58 14 0  60 14 0  62 14 0  64 14 0  66 14 0  68 14 0  70 14 0  72 14 0  74 14 0  76 14 0  78 14 0  80 14 0  82 14 0  84 14 0  86 14 0  88 14 0  90 14 0  92 14 0  94 14 0  96 14 0  98 14 0  100 14 0  102 14 0  104 14 0  106 14 0  108 14 0  110 14 0  112 14 0  114 14 0  116 14 0  118 14 0  120 14 0  122 14 0  124 14 0  126 14 0  128 14 0  130 14 0  132 14 0  134 14 0  136 14 0  138 14 0  140 14 0  142 14 0  144 14 0  146 14 0  148 14 0  150 14 0  152 14 0  154 14 0  156 14 0  158 14 0  160 14 0  162 14 0  164 14 0  166 14 0  168 14 0  170 14 0  172 14 0  174 14 0  176 14 0  178 14 0  180 14 0  182 14 0  184 14 0  186 14 0  188 14 0  190 14 0  192 14 0  194 14 0  196 14 0  198 14 0  200 14 0  0 16 0  2 16 0  4 16 0  6 16 0  8 16 0  10 16 0  12 16 0  14 16 0  16 16 0  18 16 0  20 16 0  22 16 0  24 16 0  26 16 0  28 16 0  30 16 0  32 16 0  34 16 0  36 16 0  38 16 0  40 16 0  42 16 0  44 16 0  46 16 0  48 16 0  50 16 0  52 16 0  54 16 0  56 16 0  58 16 0  60 16 0  62 16 0  64 16 0  66 16 0  68 16 0  70 16 0  72 16 0  74 16 0  76 16 0  78 16 0  80 16 0  82 16 0  84 16 0  86 16 0  88 16 0  90 16 0  92 16 0  94 16 0  96 16 0  98 16 0  100 16 0  102 16 0  104 16 0  106 16 0  108 16 0  110 16 0  112 16 0  114 16 0  116 16 0  118 16 0  120 16 0  122 16 0  124 16 0  126 16 0  128 16 0  130 16 0  132 16 0  134 16 0  136 16 0  138 16 0  140 16 0  142 16 0  144 16 0  146 16 0  148 16 0  150 16 0  152 16 0  154 16 0  156 16 0  158 16 0  160 16 0  162 16 0  164 16 0  166 16 0  168 16 0  170 16 0  172 16 0  174 16 0  176 16 0  178 16 0  180 16 0  182 16 0  184 16 0  186 16 0  188 16 0  190 16 0  192 16 0  194 16 0  196 16 0  198 16 0  200 16 0  0 18 0  2 18 0  4 18 0  6 18 0  8 18 0  10 18 0  12 18 0  14 18 0  16 18 0  18 18 0  20 18 0  22 18 0  24 18 0  26 18 0  28 18 0  30 18 0  32 18 0  34 18 0  36 18 0  38 18 0  40 18 0  42 18 0  44 18 0  46 18 0  48 18 0  50 18 0  52 18 0  54 18 0  56 18 0  58 18 0  60 18 0  62 18 0  64 18 0  66 18 0  68 18 0  70 18 0  72 18 0  74 18 0  76 18 0  78 18 0  80 18 0  82 18 0  84 18 0  86 18 0  88 18 0  90 18 0  92 18 0  94 18 0  96 18 0  98 18 0  100 18 0  102 18 0  104 18 0  106 18 0  108 18 0  110 18 0  112 18 0  114 18 0  116 18 0  118 18 0  120 18 0  122 18 0  124 18 0  126 18 0  128 18 0  130 18 0  132 18 0  134 18 0  136 18 0  138 18 0  140 18 0  142 18 0  144 18 0  146 18 0  148 18 0  150 18 0  152 18 0  154 18 0  156 18 0  158 18 0  160 18 0  162 18 0  164 18 0  166 18 0  168 18 0  170 18 0  172 18 0  174 18 0  176 18 0  178 18 0  180 18 0  182 18 0  184 18 0  186 18 0  188 18 0  190 18 0  192 18 0  194 18 0  196 18 0  198 18 0  200 18 0  0 20 0  2 20 0  4 20 0  6 20 0  8 20 0  10 20 0  12 20 0  14 20 0  16 20 0  18 20 0  20 20 0  22 20 0  24 20 0  26 20 0  28 20 0  30 20 0  32 20 0  34 20 0  36 20 0  38 20 0  40 20 0  42 20 0  44 20 0  46 20 0  48 20 0  50 20 0  52 20 0  54 20 0  56 20 0  58 20 0  60 20 0  62 20 0  64 20 0  66 20 0  68 20 0  70 20 0  72 20 0  74 20 0  76 20 0  78 20 0  80 20 0  82 20 0  84 20 0  86 20 0  88 20 0  90 20 0  92 20 0  94 20 0  96 20 0  98 20 0  100 20 0  102 20 0  104 20 0  106 20 0  108 20 0  110 20 0  112 20 0  114 20 0  116 20 0  118 20 0  120 20 0  122 20 0  124 20 0  126 20 0  128 20 0  130 20 0  132 20 0  134 20 0  136 20 0  138 20 0  140 20 0  142 20 0  144 20 0  146 20 0  148 20 0  150 20 0  152 20 0  154 20 0  156 20 0
[...]
<PointData  Scalars="C"> 
<DataArray  type="Float64"  Name="C"  format="ascii">-3.0341657333814632e-11  1.5599285974327743e-10  -8.1098324540896875e-10  2.9784563361214071e-09  -8.2484999794402085e-09  1.8890184238675731e-08  -3.6280279088165301e-08  2.7576984991376769e-08  1.8050167393830651e-07  -7.6905468880623278e-07  7.4947501740643700e-07  3.3623218119177890e-06  -1.6420480925650722e-05  3.7851863944884282e-05  -4.1275521878521193e-05  -1.7886609057952419e-05  9.8359197658081700e-05  -6.1694390646159297e-05  -7.7248882322312939e-05  2.1639133152746655e-04  9.8296443257199996e-05  -8.3256834447132538e-04  -1.8056214721758385e-03  -1.7086328302789468e-03  -5.4562621928916702e-04  2.5797822441567421e-04  5.5621520822288803e-04  5.8786060655217562e-04  3.8740849919640931e-04  -2.6806361988261738e-04  -8.5633624255242191e-04  -1.7039738173894321e-03  -2.5395154373274243e-03  -2.8587531731755181e-03  -1.7063326354614583e-03  3.0401464004501749e-04  1.1005822717283828e-03  1.1317900389804163e-03  2.0604918946747836e-04  -3.2192226812039989e-04  -3.1856952803736041e-04  1.1247438678630239e-04  1.4521937643188730e-04  -5.5722370244783047e-05  -2.9922451829606928e-05  1.1707593657105428e-05  2.9586137308738940e-06  -1.5599399907843304e-06  -1.1072414028681070e-07  1.3746585594344598e-08  -6.1004794574302437e-08  -8.2620151503229368e-08  -1.6408200267009582e-08  5.4415793586178381e-07  -1.8940368629393459e-06  1.2807059209369158e-06  1.3059300967878554e-05  -6.0860609376071098e-05  1.3954656173287622e-04  -1.3750003865715106e-04  -1.3825284386567916e-04  5.0030690516458733e-04  -1.0113815879561077e-04  -8.2009899142412369e-04  -1.8789830011972577e-05  1.4867065759923831e-03  7.6492879772526638e-04  -1.4245664622168908e-03  -2.0775493207745867e-03  -1.8124078816605773e-03  -1.4270681056230330e-03  -7.6064687041167375e-04  1.9812891556409017e-04  9.7869879679342991e-04  1.3975256528109975e-03  1.1464525082594478e-03  -9.8096081838231007e-05  -2.2805431541411186e-03  -3.0982228467635259e-03  -2.9415891148031194e-03  -2.0829517011518033e-03  7.5041031975984921e-04  2.3809165005196013e-03  1.1841221451616745e-03  -8.7624608946981666e-04  -7.9012312625492676e-04  3.6860387374937381e-04  1.9019382558216761e-04  -1.1337763033923809e-04  -2.1390264452990194e-05  1.6892626361185626e-05  3.3079058761874939e-07  -1.5440830029212493e-06  4.0752855582266423e-07  -4.7710151136176958e-08  -2.0706001696414511e-07  -5.9066161811569990e-08  -5.1856716670244321e-08  1.0637266242598342e-06  -7.9129202462973044e-06  1.1535696690609685e-05  -2.5680308690756020e-11  9.2515823409965326e-12  2.1602781495031288e-10  -1.2785496474820967e-09  3.9551845037705992e-09  -9.7636233683215068e-09  2.9000846293617426e-08  -8.4967342485299406e-08  7.1682337237391702e-08  6.4603020842200805e-07  -3.2308941579083235e-06  8.4200916314672004e-06  -1.4681401937645954e-05  8.1831661115620202e-06  3.9360314926744509e-05  -1.2177221407223117e-04  9.6143116884116241e-05  2.1204198791560436e-04  -5.1553165845884198e-04  -7.5190591027789124e-04  6.3933950455471501e-04  2.1131201122013858e-03  2.3950431183089290e-03  1.7689170743761490e-03  4.7802147011555030e-04  -6.3957452654610973e-04  -1.2583914547736109e-03  -8.8731961546170658e-04  -2.7514611235129172e-04  9.0516850188763944e-04  1.9220516386744292e-03  2.4521092397468240e-03  2.7677919745613387e-03  2.6137520602842377e-03  9.5081719583217140e-04  -1.6228896096128476e-03  -2.0307572800461072e-03  -7.7269700138149792e-04  9.3825616257003734e-04  6.0613952695861325e-04  -1.8176124248122597e-04  -1.4870345706546640e-04  6.5738565565628917e-06  6.1725951584126718e-05  -9.5342501729000265e-07  -1.2025437282283997e-05  1.7801412176035309e-06  1.2097037861797777e-06  -1.9778423413512065e-07  5.8658915096780071e-08  1.0723239261666280e-07  5.4560772172939479e-08  -6.6735955757247936e-08  -2.8586728758747760e-07  1.9241563202919923e-06  -3.2867456279327656e-06  -7.8286926233482052e-06  5.8834477943105367e-05  -1.6433795758318321e-04  2.1230619278349888e-04  9.1634042172618313e-05  -6.1714103869261517e-04  3.3108572352848344e-04  9.3730200562944428e-04  -4.0761820542992237e-04  -1.8034808976917975e-03  -4.0737832007903859e-04  1.7275010255805910e-03  2.2183887383541755e-03  2.1853960388833193e-03  1.8546925869389957e-03  9.6759657284817334e-04  -1.1840683060703652e-04  -9.9610402894031720e-04  -1.5109225496153201e-03  -9.5105485544779887e-04  1.5228207016343962e-04  1.8889956911851103e-03  2.8868760271202713e-03  3.1625020350871196e-03  2.6740836670551805e-03  -7.4039256351585820e-04  -2.6530820064298599e-03  -1.2941628003541761e-03  1.2974618301455410e-03  9.7913787357354612e-04  -5.1644848770700984e-04  -1.9357941296638601e-04  1.4858779620262346e-04  1.8598825308342164e-06  -1.9809552857113388e-05  3.5416541298882130e-06  1.1718328221926036e-06  -7.1863257242575792e-07  2.3342724678607459e-07  2.4765647544745765e-07  1.9863816007454941e-08  -1.1501471075941012e-07  3.3669829063628365e-08  3.9079318872237180e-06  -1.1812268388633581e-05  -2.4455215141239063e-11  1.2410382128280992e-10  -8.7564511620986820e-10  3.8597475477522211e-09  -1.0798192716885895e-08  1.9911800012231059e-08  -3.6222463883584587e-08  1.0664299094479535e-07  -2.1553706299804571e-07  -2.6305194090076254e-07  2.5878653936319014e-06  -8.0214839924134094e-06  1.8486053765361502e-05  -2.5479115746382359e-05  -1.9569618957595662e-05  1.3209479156454237e-04  -2.7050465993768243e-04  -1.0032131729115676e-04  1.1872887470568293e-03  1.2948069705053175e-03  -4.6766535149817234e-04  -2.7780563045155791e-03  -3.0249063219364328e-03  -2.1577814795716525e-03  -1.1175523702202919e-03  -3.5829131722117327e-04  7.8879718077876700e-04  1.2927630017598383e-03  1.0753102531969182e-03  8.5596375840389909e-05  -1.9724153747207695e-03  -3.2773507234959681e-03  -3.4058962463508436e-03  -2.7858583806889704e-03  -4.5751745469192263e-04  2.4468507406503804e-03  2.8564147091912659e-03  3.4926422240031009e-04  -1.7585496960956042e-03  -1.1175877605954063e-03  6.4984920308823826e-04  3.5624645236653784e-04  -1.1018685684727073e-04  -6.4781442490929493e-05  2.5841827698162554e-05  1.3247530721052136e-05  -6.3224158739900012e-06  -2.3840636229355826e-07  2.6015292747990778e-07  -2.0860679511067828e-07  -1.9097895023476798e-07  -5.6140941175403865e-08  9.5730679391540251e-08  3.8590466094860961e-07  -3.3065754260784380e-06  8.2425523938809270e-06  3.6378601595572350e-06  -7.3756986559413390e-05  2.4999553896198857e-04  -4.1695720828775030e-04  1.1098204211495714e-04  6.7593514342482563e-04  -1.0523992690287041e-03  -5.9195960276300008e-04  1.4052339500112577e-03  1.9007626169321595e-03  -1.4991002408823516e-04  -2.4297492093538304e-03  -3.2781225176080364e-03  -3.1504943705835658e-03  -1.8584051919041621e-03  -3.4071787369594164e-04  6.9608330702158481e-04  1.0170350326043774e-03  7.2865682431248714e-04  -2.5875934149059551e-05  -5.4240669141119712e-04  -1.9640819748675533e-03  -2.7545923256101635e-03  -3.2056509516736700e-03  -2.1161905453464468e-03  1.1755095225056873e-03  3.2476096252653463e-03  1.2175972397551514e-03  -1.9899058388238781e-03  -1.2061193361227022e-03  1.0547604866961266e-03  3.1020383281775123e-04  -2.7385317086244649e-04  2.0312343572561353e-05  2.8469434235331823e-05  -1.0430416306585411e-05  -1.1421945271498137e-08  1.3197750155302502e-06  -6.7215725425827532e-07  -4.1888122792158271e-07  5.9533133925637341e-08  7.8341459415158717e-08  1.2256617496365288e-07  -4.2244536717037049e-06  1.7385397978391033e-05  3.9702788022488969e-11  -2.1540315822526703e-10  1.6795305946527104e-09  -8.2223419201342715e-09  2.4201308819457957e-08  -4.3977554142825354e-08  5.6328157149075073e-08  -1.2899028241185731e-07  2.4584799471128837e-07  6.2006611470911937e-07  -4.1101144757764513e-06  1.0076827552402454e-05  -2.1888266260212318e-05  2.3573156016254304e-05  5.4166546318121082e-05  -1.3326194653686955e-04  5.5914158601861632e-04  6.3209405932916488e-04  -1.0649347167007695e-03  -2.1975092556434130e-03  -1.6772142095660097e-03  1.6320277722357865e-03  2.3654727854547672e-03  2.9983209253776639e-03  3.8788544711690371e-03  4.8106574653909622e-03  5.4938405266885138e-03  5.8685478091262868e-03  5.8486831421360073e-03  5.3825038446555038e-03  4.3991702621734418e-03  3.4806368914645468e-03  3.3509486166924517e-03  3.6320839099546129e-03  2.6797933593607332e-03  -3.2228080696872050e-03  -3.3334996280443615e-03  5.9887803615559037e-05  2.9916155311702406e-03  1.1766528230158992e-03  -1.4767181609474549e-03  -7.0096434557077750e-04  3.9169971523391443e-04  8.7204153917049706e-05  -5.7598974363756514e-05  8.0307317215338567e-07  1.2587823337939227e-05  -2.4606674497890209e-06  5.2372744678188456e-07  4.0428849063146931e-07  3.1757155275776210e-07  7.4282689579054130e-08  -1.7357508979074252e-07  -2.7647391639317814e-07  5.2938097331693639e-06  -1.7742151865475982e-05  1.7175882177569172e-05  6.2029877887489170e-05  -2.8316063837926901e-04  6.2222711440198619e-04  -5.5490961723662360e-04  -3.4447311327858609e-04  1.8203714556020872e-03  1.9831127745793139e-04  -2.3664391185857139e-03  -3.0055973732122806e-03  1.0821862130892411e-03  3.0183847492682770e-03  3.3411072409084224e-03  3.7989486427797798e-03  4.7698562402998445e-03  5.5034407580040164e-03  5.8228549522088913e-03  5.7320342609509514e-03  5.2808026919267791e-03  4.5182090283925544e-03  3.5398310063722762e-03  2.7783461664204977e-03  2.5725449467628265e-03  2.0158282088511910e-03  9.6661512307850560e-04  -1.6632524297396103e-03  -3.1823361369320170e-03  1.6573669858044273e-05  2.7517823740893935e-03  8.5463959605101510e-04  -1.7476664601066734e-03  -1.8872660204460209e-04  5.4192684734651086e-04  -8.3473130465367085e-05  -3.8338677972907495e-05  2.1725278554732021e-05  -4.0761763223792898e-06  -1.4701241479186605e-06  1.5144206502803698e-06  6.1150055965748784e-07  -2.1372856679992249e-07  -1.0390194804646720e-07  -2.0591836970508255e-07  4.4770146109681137e-06  -2.2896795956105201e-05  -1.2548558006513055e-10  4.6344480028549444e-10  -3.5497833380648363e-09  1.7836344968743825e-08  -5.5276494204420553e-08  9.8255191086281138e-08  -9.0084007797246204e-08  1.2612054063928906e-07  -1.0837219619316082e-07  -1.8830899990693835e-06  7.7913583929654857e-06  -1.1307803499854654e-05  1.3741289957096207e-05  2.2758615205193022e-06  -1.6393067906800206e-04  3.9909857137329998e-04  -4.1621474884774009e-04  -1.7047646108956094e-03  -7.8115296095214828e-04  1.5866576380684494e-03  3.2718310452597484e-03  5.5383240809767156e-03  7.6211683052630390e-03  1.1230243647765011e-02  1.5907878247713482e-02  2.0544057198146403e-02  2.4249022382380157e-02  2.6432713153122442e-02  2.6732767057009679e-02  2.5090570209019818e-02  2.1797431806230092e-02  1.7382262715820308e-02  1.2629051417398693e-02  8.6017455773724182e-03  5.8145479162716287e-03  3.2557439615509276e-03  3.2103850757830179e-03  2.5378252149312742e-03  -4.0533227011229217e-03  -9.1393212523872781e-04  2.6943069730792236e-03  6.5527111300829545e-04  -1.2697790388380605e-03  -8.0152026404854649e-05  1.8051444564355510e-04  -1.3589913705815115e-05  -1.1647738239845081e-05  7.6034141255029574e-06  -2.5058286942753775e-06  -2.9088842810805503e-07  -6.4005842604499130e-07  -7.6054699414993054e-08  2.9635704011850340e-07  -6.9717542460293158e-08  -5.8029644643589641e-06  3.3845653711998228e-05  -5.5788938430761940e-05  4.8529852685943515e-06  2.1280942666996409e-04  -6.6553093994310372e-04  1.2952398149309165e-03  -8.0955830166036747e-06  -3.0753461038218917e-03  5.3198019453002906e-04  2.2511288025385983e-03  3.5422113330880020e-03  5.7645432014626387e-03  8.4561176271297882e-03  1.2455401804000565e-02  1.7176398257953529e-02  2.1547908525238968e-02  2.4787238216942412e-02  2.6385633568736553e-02  2.6083194628166835e-02  2.3932970042102836e-02  2.0281915908411413e-02  1.5715320261770541e-02  1.1120307567537478e-02  7.6006971404007952e-03  5.5036248814983616e-03  3.3906843796151398e-03  2.0752911372424556e-03  1.8985832757772850e-03  -8.5184415525377006e-04  -2.7760361791974689e-03  5.5923268078966293e-04  2.1285886908997929e-03  -5.1838172575446352e-04  -7.8835269604393666e-04  3.2166534201854858e-04  3.9315016057011981e-05  -4.2162052066910801e-05  1.3555302140752245e-05  1.7352853954545980e-07  -2.6450808388680068e-06  -7.6230453339086062e-07  5.3107468335542672e-07  1.1583315039272457e-07  3.1682146293006183e-07  -4.9465540105410771e-06  2.8361730383501955e-05  2.6151201323526764e-10  -9.3935879018540089e-10  7.1513114645393642e-09  -3.8506881536100421e-08  1.2448567992095086e-07  -2.1474372810740518e-07  1.3188254434096777e-07  1.4286187454875889e-07  -5.0413328981608789e-07  6.8062419085466506e-06  -1.7508121584721535e-05  1.5798613077630228e-05  1.8978549743731047e-05  6.4490645629913546e-05  7.2595042086524971e-04  -9.3841811458853408e-04  -1.0379723079907829e-03  1.9510832847471288e-03  4.2859033177679437e-03  8.2132153493861427e-03  1.9218283049878045e-02  4.9009703803282331e-02  1.0328945356394782e-01  1.6788635729671109e-01  2.2417619833875377e-01  2.6614151027607857e-01  2.9457632214020529e-01  3.1001298038960945e-01  3.1210335789900118e-01  3.0073734779554673e-01  2.7627384805885652e-01  2.3859215975983800e-01  1.8669676263437238e-01  1.2339426019500838e-01  6.3823582499301534e-02  2.6180771661964107e-02  1.0546963569048082e-02  5.2279883599402064e-03  2.9543193609040284e-03  3.2069938231505733e-03  -3.2726196868245790e-03  -1.5456360718882873e-04  2.2276523215253624e-03  -3.0987191302933863e-04  -5.0415370458094071e-04  1.5013763213519968e-04  3.4004867623294832e-05  -1.2687931990161575e-05  6.7382918078066811e-06  8.5194666372619212e-08  1.4247931601458653e-06  -7.3712893064312289e-08  -3.1135712309417307e-07  1.2201217330367789e-06  5.6594074257385277e-06  -4.9532079922427366e-05  1.2421711195238075e-04  -1.5968807638835414e-04  7.9458364271850921e-05  8.8787778479962223e-04  -2.3174516763473465e-03  8.3027701646818427e-04  2.3500859149741707e-03  5.1836636774459195e-03  1.0234249118913734e-02  2.5685519697178888e-02  6.2848861941847994e-02  1.2198748127957253e-01  1.8512790168964136e-01  2.3689224737993655e-01  2.7433244665091017e-01  2.9852379046318211e-01  3.0972774089717786e-01  3.0767704457305656e-01  2.9247398661481921e-01  2.6436772781862289e-01  2.2269848679990428e-01  1.6662881295837126e-01  1.0230847831581132e-01  4.8447572260228423e-02  1.9001829365070722e-02  8.2931871989862967e-03  4.7367736877333075e-03  2.6772042288180512e-03  2.2010122608814718e-03  -1.5971963413851456e-03  -1.4700835729072872e-03  1.6726987337567472e-03  6.3901121353632760e-04  -7.1286754373967856e-04  1.0585927345215612e-04  8.1391663895908443e-05  -3.4474926959717388e-05  5.6549418046463669e-06  3.9110681919343341e-06  8.6143175774219909e-07  -1.0802890623526037e-06  -3.5750166846841749e-08  -4.7242426277895103e-07  5.6692328151644286e-06  -3.3829212483283773e-05  -4.4972711864280470e-10  1.4059846429852263e-09  -1.2951121160051202e-08  7.8200690883933753e-08  -2.6653544167594863e-07  4.8573059289898082e-07  -4.5662154250493527e-09  -7.5358982983415807e-07  3.8760071209293030e-06  -1.6885978215093650e-05  4.7720734645472782e-05  -4.8447168621595838e-05  -1.7031631669819194e-05  1.5786957753159702e-04  -1.8454673610226256e-03  1.7220272474373710e-03  4.1615877017468121e-03  1.0009439219454880e-02  3.1589260926916087e-02  9.8776175883312167e-02  2.3274705386169417e-01  4.2824928849182103e-01  6.2565944983500277e-01  7.5478856922105642e-01  8.2050750259308869e-01  8.5353889046487885e-01  8.7109488572449900e-01  8.7946168874579189e-01  8.8054213305784002e-01  8.7451791812328594e-01  8.6014631334311098e-01  8.3301043109812500e-01  7.8031204292424461e-01  6.7467243068678084e-01  4.9580759120884466e-01  2.9211092580861503e-01  1.3721173849359050e-01  4.8961737803044220e-02  1.4919658656121616e-02  6.1979202908020127e-03  3.3921240350353590e-03  2.3659600959784486e-03  -2.9774039456520870e-03  1.2678795525839985e-03  8.3524466811065118e-04  -5.9335074097231007e-04  4.7208319952949625e-05  5.3920506789454246e-05  -1.4788086580142193e-05  3.4535867132354114e-07  -2.2434938914961357e-06  3.4535991294716284e-07  4.4492205560210382e-07  -1.2330933347266089e-06  2.8276011944018249e-06  6.7201384023885495e-05  -2.3405691258189103e-04  4.2960591696701491e-04  -5.9045321360089100e-04  -1.0391598506361303e-03  2.1700061495410986e-03  5.7643988423148520e-03  1.4451891619492412e-02  4.7943165334725764e-02  1.3505758095949091e-01  2.8865750491296421e-01  4.9179221751759372e-01  6.7163573875760318e-01  7.7842382511871222e-01  8.3166147507303390e-01  8.5894140527454210e-01  8.7331616405422474e-01  8.7932416581186057e-01  8.7825297765895916e-01  8.6991975604854921e-01  8.5237468747144407e-01  8.1921373634845551e-01  7.5302796326404831e-01  6.2313240151584803e-01  4.2556831844870846e-01  2.3094906043777327e-01  9.7894825505712338e-02  3.1289443882304278e-02  1.0086876764530373e-02  5.1098468233895982e-03  3.0460821983829731e-03  1.4661226613348021e-03  -2.1392873368005524e-03  4.0819626538982437e-04  1.0679054706310605e-03  -4.7874754247262472e-04  -1.9324569464704897e-05  8.4886907445520270e-05  -1.8902272786407865e-05  -3.3840320175664343e-06  -3.0976330493378972e-07  1.8372365685454105e-06  -2.0439391737533471e-07  7.2087953034649939e-07  -6.7019772806122838e-06  3.9404194817869049e-05  6.7401503132099658e-10  -1.5536657919260131e-09  1.8795006389462797e-08  -1.3778359402140433e-07  5.5692863830063490e-07  -9.0472146566673355e-07  -1.6556754012572988e-08  4.5701518540762202e-06  -8.9116604247877722e-06  4.2683842785195098e-05  -1.2318314688581277e-04  2.2871888334616644e-04  -1.0077003468465253e-04  -6.7469590982763324e-05  2.8322822691385775e-03  8.2754265212371843e-03  2.7943288235605709e-02  1.0946516252838939e-01  3.0722962978454221e-01  5.8987163958752054e-01  8.0599045056950513e-01  9.1752765196058550e-01  9.6767078705739162e-01  9.8724578005408714e-01  9.9430636030653385e-01  9.9704735655814836e-01  9.9826301214721680e-01  9.9878747000017765e-01  9.9885012826157615e-01  9.9847137221774529e-01  9.9750120913056783e-01  9.9537163968085651e-01  9.9015834786574897e-01  9.7594556093879448e-01  9.3846419916712687e-01  8.5290524460715744e-01  6.7951099524039327e-01  4.0944400960721616e-01  1.7109713015199637e-01  4.9837721574619041e-02  1.3191643531014511e-02  5.5904687160587196e-03  3.5030796655534280e-03  -7.6990821627524622e-04  -7.4528302824798480e-04  1.2538904479306302e-03  -3.9436349939035546e-04  -3.5084154311413783e-05  6.2365862801927618e-05  -3.8258810300804589e-06  2.6213151396076053e-06  4.7090688961573182e-07  -7.3972585203231458e-07  4.6873397442891891e-06  -1.7104773476112384e-05  -6.8106950215606843e-05  4.1905540726646973e-04  -9.5074945720238909e-04  1.1709954532156247e-03  4.0241295931815364e-03  1.2766409806285043e-02  4.8763323269796863e-02  1.6819655656612284e-01  4.0461639618666273e-01  6.7542369624529031e-01  8.5067052947915767e-01  9.3737617122620442e-01  9.7547522643758267e-01  9.8995522056847651e-01  9.9525694508353268e-01  9.9741078979908737e-01  9.9838629562237058e-01  9.9876561411996467e-01  9.9870237108430238e-01  9.9817595991165087e-01  9.9695277880420485e-01  9.9418388689066750e-01  9.8703235756811170e-01  9.6721706553794495e-01  9.1661951847805112e-01  8.0439132157023929e-01  5.8752749721055741e-01  3.0529238414681453e-01  1.0862406919561449e-01  2.7755995970364156e-02  8.4096725776866138e-03  4.3497817298685914e-03  2.8778027319162893e-03  -1.2231050072430893e-03  -7.8402148696105013e-04  1.1256796059562430e-03  -2.4798618352619409e-04  -7.1531368632799352e-05  6.1528888913273445e-05  1.6817977049829107e-06  -6.4000257439342121e-07  -1.6598775529921780e-06  3.8911976282498845e-07  -1.0444883143980751e-06  8.1429697019296406e-06  -4.5293913634050618e-05  -2.3118838804267193e-09  2.2861819093733090e-09  -1.9217300141046592e-08  2.2497268869728868e-07  -9.3108394785877142e-07  2.0285089658830966e-06  2.2179835403713068e-06  -1.0799595935747611e-05  2.8266790054755023e-05  -8.86869