<?xml version="1.0"?>
<VTKFile type="UnstructuredGrid"  version="0.1"  >
<UnstructuredGrid>
<Piece  NumberOfPoints="11156" NumberOfCells="22000">
<Points>
<DataArray  type="Float64"  NumberOfComponents="3"  format="ascii">0 0 0  2 0 0  4 0 0  6 0 0  8 0 0  10 0 0  12 0 0  14 0 0  16 0 0  18 0 0  20 0 0  22 0 0  24 0 0  26 0 0  28 0 0  30 0 0  32 0 0  34 0 0  36 0 0  38 0 0  40 0 0  42 0 0  44 0 0  46 0 0  48 0 0  50 0 0  52 0 0  54 0 0  56 0 0  58 0 0  60 0 0  62 0 0  64 0 0  66 0 0  68 0 0  70 0 0  72 0 0  74 0 0  76 0 0  78 0 0  80 0 0  82 0 0  84 0 0  86 0 0  88 0 0  90 0 0  92 0 0  94 0 0  96 0 0  98 0 0  100 0 0  102 0 0  104 0 0  106 0 0  108 0 0  110 0 0  112 0 0  114 0 0  116 0 0  118 0 0  120 0 0  122 0 0  124 0 0  126 0 0  128 0 0  130 0 0  132 0 0  134 0 0  136 0 0  138 0 0  140 0 0  142 0 0  144 0 0  146 0 0  148 0 0  150 0 0  152 0 0  154 0 0  156 0 0  158 0 0  160 0 0  162 0 0  164 0 0  166 0 0  168 0 0  170 0 0  172 0 0  174 0 0  176 0 0  178 0 0  180 0 0  182 0 0  184 0 0  186 0 0  188 0 0  190 0 0  192 0 0  194 0 0  196 0 0  198 0 0  200 0 0  0 2 0  2 2 0  4 2 0  6 2 0  8 2 0  10 2 0  12 2 0  14 2 0  16 2 0  18 2 0  20 2 0  22 2 0  24 2 0  26 2 0  28 2 0  30 2 0  32 2 0  34 2 0  36 2 0  38 2 0  40 2 0  42 2 0  44 2 0  46 2 0  48 2 0  50 2 0  52 2 0  54 2 0  56 2 0  58 2 0  60 2 0  62 2 0  64 2 0  66 2 0  68 2 0  70 2 0  72 2 0  74 2 0  76 2 0  78 2 0  80 2 0  82 2 0  84 2 0  86 2 0  88 2 0  90 2 0  92 2 0  94 2 0  96 2 0  98 2 0  100 2 0  102 2 0  104 2 0  106 2 0  108 2 0  110 2 0  112 2 0  114 2 0  116 2 0  118 2 0  120 2 0  122 2 0  124 2 0  126 2 0  128 2 0  130 2 0  132 2 0  134 2 0  136 2 0  138 2 0  140 2 0  142 2 0  144 2 0  146 2 0  148 2 0  150 2 0  152 2 0  154 2 0  156 2 0  158 2 0  160 2 0  162 2 0  164 2 0  166 2 0  168 2 0  170 2 0  172 2 0  174 2 0  176 2 0  178 2 0  180 2 0  182 2 0  184 2 0  186 2 0  188 2 0  190 2 0  192 2 0  194 2 0  196 2 0  198 2 0  200 2 0  0 4 0  2 4 0  4 4 0  6 4 0  8 4 0  10 4 0  12 4 0  14 4 0  16 4 0  18 4 0  20 4 0  22 4 0  24 4 0  26 4 0  28 4 0  30 4 0  32 4 0  34 4 0  36 4 0  38 4 0  40 4 0  42 4 0  44 4 0  46 4 0  48 4 0  50 4 0  52 4 0  54 4 0  56 4 0  58 4 0  60 4 0  62 4 0  64 4 0  66 4 0  68 4 0  70 4 0  72 4 0  74 4 0  76 4 0  78 4 0  80 4 0  82 4 0  84 4 0  86 4 0  88 4 0  90 4 0  92 4 0  94 4 0  96 4 0  98 4 0  100 4 0  102 4 0  104 4 0  106 4 0  108 4 0  110 4 0  112 4 0  114 4 0  116 4 0  118 4 0  120 4 0  122 4 0  124 4 0  126 4 0  128 4 0  130 4 0  132 4 0  134 4 0  136 4 0  138 4 0  140 4 0  142 4 0  144 4 0  146 4 0  148 4 0  150 4 0  152 4 0  154 4 0  156 4 0  158 4 0  160 4 0  162 4 0  164 4 0  166 4 0  168 4 0  170 4 0  172 4 0  174 4 0  176 4 0  178 4 0  180 4 0  182 4 0  184 4 0  186 4 0  188 4 0  190 4 0  192 4 0  194 4 0  196 4 0  198 4 0  200 4 0  0 6 0  2 6 0  4 6 0  6 6 0  8 6 0  10 6 0  12 6 0  14 6 0  16 6 0  18 6 0  20 6 0  22 6 0  24 6 0  26 6 0  28 6 0  30 6 0  32 6 0  34 6 0  36 6 0  38 6 0  40 6 0  42 6 0  44 6 0  46 6 0  48 6 0  50 6 0  52 6 0  54 6 0  56 6 0  58 6 0  60 6 0  62 6 0  64 6 0  66 6 0  68 6 0  70 6 0  72 6 0  74 6 0  76 6 0  78 6 0  80 6 0  82 6 0  84 6 0  86 6 0  88 6 0  90 6 0  92 6 0  94 6 0  96 6 0  98 6 0  100 6 0  102 6 0  104 6 0  106 6 0  108 6 0  110 6 0  112 6 0  114 6 0  116 6 0  118 6 0  120 6 0  122 6 0  124 6 0  126 6 0  128 6 0  130 6 0  132 6 0  134 6 0  136 6 0  138 6 0  140 6 0  142 6 0  144 6 0  146 6 0  148 6 0  150 6 0  152 6 0  154 6 0  156 6 0  158 6 0  160 6 0  162 6 0  164 6 0  166 6 0  168 6 0  170 6 0  172 6 0  174 6 0  176 6 0  178 6 0  180 6 0  182 6 0  184 6 0  186 6 0  188 6 0  190 6 0  192 6 0  194 6 0  196 6 0  198 6 0  200 6 0  0 8 0  2 8 0  4 8 0  6 8 0  8 8 0  10 8 0  12 8 0  14 8 0  16 8 0  18 8 0  20 8 0  22 8 0  24 8 0  26 8 0  28 8 0  30 8 0  32 8 0  34 8 0  36 8 0  38 8 0  40 8 0  42 8 0  44 8 0  46 8 0  48 8 0  50 8 0  52 8 0  54 8 0  56 8 0  58 8 0  60 8 0  62 8 0  64 8 0  66 8 0  68 8 0  70 8 0  72 8 0  74 8 0  76 8 0  78 8 0  80 8 0  82 8 0  84 8 0  86 8 0  88 8 0  90 8 0  92 8 0  94 8 0  96 8 0  98 8 0  100 8 0  102 8 0  104 8 0  106 8 0  108 8 0  110 8 0  112 8 0  114 8 0  116 8 0  118 8 0  120 8 0  122 8 0  124 8 0  126 8 0  128 8 0  130 8 0  132 8 0  134 8 0  136 8 0  138 8 0  140 8 0  142 8 0  144 8 0  146 8 0  148 8 0  150 8 0  152 8 0  154 8 0  156 8 0  158 8 0  160 8 0  162 8 0  164 8 0  166 8 0  168 8 0  170 8 0  172 8 0  174 8 0  176 8 0  178 8 0  180 8 0  182 8 0  184 8 0  186 8 0  188 8 0  190 8 0  192 8 0  194 8 0  196 8 0  198 8 0  200 8 0  0 10 0  2 10 0  4 10 0  6 10 0  8 10 0  10 10 0  12 10 0  14 10 0  16 10 0  18 10 0  20 10 0  22 10 0  24 10 0  26 10 0  28 10 0  30 10 0  32 10 0  34 10 0  36 10 0  38 10 0  40 10 0  42 10 0  44 10 0  46 10 0  48 10 0  50 10 0  52 10 0  54 10 0  56 10 0  58 10 0  60 10 0  62 10 0  64 10 0  66 10 0  68 10 0  70 10 0  72 10 0  74 10 0  76 10 0  78 10 0  80 10 0  82 10 0  84 10 0  86 10 0  88 10 0  90 10 0  92 10 0  94 10 0  96 10 0  98 10 0  100 10 0  102 10 0  104 10 0  106 10 0  108 10 0  110 10 0  112 10 0  114 10 0  116 10 0  118 10 0  120 10 0  122 10 0  124 10 0  126 10 0  128 10 0  130 10 0  132 10 0  134 10 0  136 10 0  138 10 0  140 10 0  142 10 0  144 10 0  146 10 0  148 10 0  150 10 0  152 10 0  154 10 0  156 10 0  158 10 0  160 10 0  162 10 0  164 10 0  166 10 0  168 10 0  170 10 0  172 10 0  174 10 0  176 10 0  178 10 0  180 10 0  182 10 0  184 10 0  186 10 0  188 10 0  190 10 0  192 10 0  194 10 0  196 10 0  198 10 0  200 10 0  0 12 0  2 12 0  4 12 0  6 12 0  8 12 0  10 12 0  12 12 0  14 12 0  16 12 0  18 12 0  20 12 0  22 12 0  24 12 0  26 12 0  28 12 0  30 12 0  32 12 0  34 12 0  36 12 0  38 12 0  40 12 0  42 12 0  44 12 0  46 12 0  48 12 0  50 12 0  52 12 0  54 12 0  56 12 0  58 12 0  60 12 0  62 12 0  64 12 0  66 12 0  68 12 0  70 12 0  72 12 0  74 12 0  76 12 0  78 12 0  80 12 0  82 12 0  84 12 0  86 12 0  88 12 0  90 12 0  92 12 0  94 12 0  96 12 0  98 12 0  100 12 0  102 12 0  104 12 0  106 12 0  108 12 0  110 12 0  112 12 0  114 12 0  116 12 0  118 12 0  120 12 0  122 12 0  124 12 0  126 12 0  128 12 0  130 12 0  132 12 0  134 12 0  136 12 0  138 12 0  140 12 0  142 12 0  144 12 0  146 12 0  148 12 0  150 12 0  152 12 0  154 12 0  156 12 0  158 12 0  160 12 0  162 12 0  164 12 0  166 12 0  168 12 0  170 12 0  172 12 0  174 12 0  176 12 0  178 12 0  180 12 0  182 12 0  184 12 0  186 12 0  188 12 0  190 12 0  192 12 0  194 12 0  196 12 0  198 12 0  200 12 0  0 14 0  2 14 0  4 14 0  6 14 0  8 14 0  10 14 0  12 14 0  14 14 0  16 14 0  18 14 0  20 14 0  22 14 0  24 14 0  26 14 0  28 14 0  30 14 0  32 14 0  34 14 0  36 14 0  38 14 0  40 14 0  42 14 0  44 14 0  46 14 0  48 14 0  50 14 0  52 14 0  54 14 0  56 14 0  58 14 0  60 14 0  62 14 0  64 14 0  66 14 0  68 14 0  70 14 0  72 14 0  74 14 0  76 14 0  78 14 0  80 14 0  82 14 0  84 14 0  86 14 0  88 14 0  90 14 0  92 14 0  94 14 0  96 14 0  98 14 0  100 14 0  102 14 0  104 14 0  106 14 0  108 14 0  110 14 0  112 14 0  114 14 0  116 14 0  118 14 0  120 14 0  122 14 0  124 14 0  126 14 0  128 14 0  130 14 0  132 14 0  134 14 0  136 14 0  138 14 0  140 14 0  142 14 0  144 14 0  146 14 0  148 14 0  150 14 0  152 14 0  154 14 0  156 14 0  158 14 0  160 14 0  162 14 0  164 14 0  166 14 0  168 14 0  170 14 0  172 14 0  174 14 0  176 14 0  178 14 0  180 14 0  182 14 0  184 14 0  186 14 0  188 14 0  190 14 0  192 14 0  194 14 0  196 14 0  198 14 0  200 14 0  0 16 0  2 16 0  4 16 0  6 16 0  8 16 0  10 16 0  12 16 0  14 16 0  16 16 0  18 16 0  20 16 0  22 16 0  24 16 0  26 16 0  28 16 0  30 16 0  32 16 0  34 16 0  36 16 0  38 16 0  40 16 0  42 16 0  44 16 0  46 16 0  48 16 0  50 16 0  52 16 0  54 16 0  56 16 0  58 16 0  60 16 0  62 16 0  64 16 0  66 16 0  68 16 0  70 16 0  72 16 0  74 16 0  76 16 0  78 16 0  80 16 0  82 16 0  84 16 0  86 16 0  88 16 0  90 16 0  92 16 0  94 16 0  96 16 0  98 16 0  100 16 0  102 16 0  104 16 0  106 16 0  108 16 0  110 16 0  112 16 0  114 16 0  116 16 0  118 16 0  120 16 0  122 16 0  124 16 0  126 16 0  128 16 0  130 16 0  132 16 0  134 16 0  136 16 0  138 16 0  140 16 0  142 16 0  144 16 0  146 16 0  148 16 0  150 16 0  152 16 0  154 16 0  156 16 0  158 16 0  160 16 0  162 16 0  164 16 0  166 16 0  168 16 0  170 16 0  172 16 0  174 16 0  176 16 0  178 16 0  180 16 0  182 16 0  184 16 0  186 16 0  188 16 0  190 16 0  192 16 0  194 16 0  196 16 0  198 16 0  200 16 0  0 18 0  2 18 0  4 18 0  6 18 0  8 18 0  10 18 0  12 18 0  14 18 0  16 18 0  18 18 0  20 18 0  22 18 0  24 18 0  26 18 0  28 18 0  30 18 0  32 18 0  34 18 0  36 18 0  38 18 0  40 18 0  42 18 0  44 18 0  46 18 0  48 18 0  50 18 0  52 18 0  54 18 0  56 18 0  58 18 0  60 18 0  62 18 0  64 18 0  66 18 0  68 18 0  70 18 0  72 18 0  74 18 0  76 18 0  78 18 0  80 18 0  82 18 0  84 18 0  86 18 0  88 18 0  90 18 0  92 18 0  94 18 0  96 18 0  98 18 0  100 18 0  102 18 0  104 18 0  106 18 0  108 18 0  110 18 0  112 18 0  114 18 0  116 18 0  118 18 0  120 18 0  122 18 0  124 18 0  126 18 0  128 18 0  130 18 0  132 18 0  134 18 0  136 18 0  138 18 0  140 18 0  142 18 0  144 18 0  146 18 0  148 18 0  150 18 0  152 18 0  154 18 0  156 18 0  158 18 0  160 18 0  162 18 0  164 18 0  166 18 0  168 18 0  170 18 0  172 18 0  174 18 0  176 18 0  178 18 0  180 18 0  182 18 0  184 18 0  186 18 0  188 18 0  190 18 0  192 18 0  194 18 0  196 18 0  198 18 0  200 18 0  0 20 0  2 20 0  4 20 0  6 20 0  8 20 0  10 20 0  12 20 0  14 20 0  16 20 0  18 20 0  20 20 0  22 20 0  24 20 0  26 20 0  28 20 0  30 20 0  32 20 0  34 20 0  36 20 0  38 20 0  40 20 0  42 20 0  44 20 0  46 20 0  48 20 0  50 20 0  52 20 0  54 20 0  56 20 0  58 20 0  60 20 0  62 20 0  64 20 0  66 20 0  68 20 0  70 20 0  72 20 0  74 20 0  76 20 0  78 20 0  80 20 0  82 20 0  84 20 0  86 20 0  88 20 0  90 20 0  92 20 0  94 20 0  96 20 0  98 20 0  100 20 0  102 20 0  104 20 0  106 20 0  108 20 0  110 20 0  112 20 0  114 20 0  116 20 0  118 20 0  120 20 0  122 20 0  124 20 0  126 20 0  128 20 0  130 20 0  132 20 0  134 20 0  136 20 0  138 20 0  140 20 0  142 20 0  144 20 0  146 20 0  148 20 0  150 20 0  152 20 0  154 20 0  156 20 0
[...]
<PointData  Scalars="C"> 
<DataArray  type="Float64"  Name="C"  format="ascii">-3.1718685728644989e-11  1.5982290462683428e-10  -8.2388460148358583e-10  3.0049286573229359e-09  -8.2614414036422437e-09  1.8836947174861126e-08  -3.6647652213050577e-08  3.2271075880067595e-08  1.5911260189416079e-07  -7.2825172493245239e-07  8.2757781221046811e-07  2.5233521496042761e-06  -1.3203883158475278e-05  3.0634840479065541e-05  -3.4295084875431772e-05  -7.2648225398790821e-06  6.0129379613866871e-05  -5.6313384198186592e-05  2.3351110943003391e-05  2.4981963552729038e-04  -7.7393522051282502e-05  -1.0329065270840362e-03  -1.9334765939047799e-03  -1.8008443842811458e-03  -5.1689635654562829e-04  4.1852560925478014e-04  7.0879482993653953e-04  6.3563154985223991e-04  3.5949400892383511e-04  -4.3681778366216054e-04  -1.0425658425994983e-03  -1.7772784192349254e-03  -2.4564085971784002e-03  -2.7614342739864036e-03  -1.6511153185018456e-03  5.4153953982223624e-04  1.2567481060473851e-03  1.0875026984863017e-03  8.7689267296665332e-05  -2.9873408862257731e-04  -2.7390570584890587e-04  8.5658292012935207e-05  1.4450693068929964e-04  -5.0994041797755293e-05  -3.1280834037149808e-05  1.1683355395949875e-05  3.0223478612097412e-06  -1.5594574190846464e-06  -1.1740198213960781e-07  1.3139505150657542e-08  -6.3186955203990181e-08  -8.2123776290402608e-08  -2.7939348661156277e-08  5.9840686769791956e-07  -1.9903408146000647e-06  9.6238045882130997e-07  1.5672902254553505e-05  -6.9545046392727563e-05  1.5614719026175449e-04  -1.4909378671844404e-04  -1.6026950240247563e-04  5.5407287037934419e-04  -1.1044936889494911e-04  -8.9229497249921025e-04  2.3949572443339025e-05  1.5811578205832547e-03  7.4646829193661217e-04  -1.5705085125847027e-03  -2.0694508272173459e-03  -1.8006323600468234e-03  -1.4729182610447936e-03  -8.2495089589666921e-04  1.9295074989919420e-04  1.0346850313157766e-03  1.4846049020523669e-03  1.1925028764532852e-03  -1.5393034824654798e-04  -2.3223035872530855e-03  -2.9818673803327965e-03  -2.8458121715879800e-03  -2.0840985800894773e-03  8.0513903831750473e-04  2.3957604556329704e-03  1.2035230369136774e-03  -9.3535617434513190e-04  -8.4967169797701254e-04  3.9103219246763344e-04  2.0325525066301235e-04  -1.2171177928730981e-04  -2.1623040569054710e-05  1.7880715296982298e-05  1.5733579332128930e-07  -1.5824588350609590e-06  4.3586653904431268e-07  -5.3772799891542768e-08  -2.1419792576884025e-07  -5.9896842536592162e-08  -5.4600933779101344e-08  1.0931453358833582e-06  -8.1075810195221509e-06  1.1818505949415450e-05  -2.4401931329690037e-11  7.7861912172340236e-12  2.1353024916127757e-10  -1.2336393095251213e-09  3.7093258705546089e-09  -8.9718564033376024e-09  2.7890677581119154e-08  -9.0664721960295432e-08  1.1745779657982140e-07  5.1869876318979549e-07  -3.2520407016162530e-06  9.8697090608598350e-06  -2.1020132232773714e-05  2.3666311184478623e-05  2.1272377766712069e-05  -1.3548343288817091e-04  1.7305037447596272e-04  1.6755040495105311e-04  -7.1331255685254434e-04  -7.2856874792230847e-04  9.6471852655038602e-04  2.2365805410752932e-03  2.3106821537841452e-03  1.5876969036422756e-03  2.7907278299838103e-04  -7.7866135026772644e-04  -1.3593434718958588e-03  -8.6160025624636496e-04  -1.3739168760583257e-04  1.1097635936784369e-03  2.0245867954547269e-03  2.3701295479844875e-03  2.6014990137426240e-03  2.3960805890741745e-03  6.6685828639196385e-04  -1.7040643420649577e-03  -1.9636035235749160e-03  -5.8685020859644793e-04  1.0770467393313289e-03  5.6926698635555129e-04  -2.8520152205328061e-04  -1.0857758020727983e-04  2.0609401317348662e-05  5.1880523449731447e-05  6.1589610683618162e-08  -1.1792948957963990e-05  1.8648637640669713e-06  1.1714839734842542e-06  -1.9089464542580198e-07  6.2280278649619136e-08  1.1041928037767837e-07  5.3318420733507692e-08  -5.3303777792081232e-08  -3.7091772953030039e-07  2.1658886265060432e-06  -3.1300384827819606e-06  -1.1344071951632400e-05  7.2609725753127187e-05  -1.9402477792470279e-04  2.4102724324765416e-04  1.1855297412390254e-04  -6.9801356216891248e-04  3.7965252809619380e-04  1.0089724016992879e-03  -4.4748798097922905e-04  -1.7754666013102629e-03  -4.9596694604716490e-04  1.5697880300085878e-03  2.0760067401317550e-03  2.0867045478181346e-03  1.8823479755644683e-03  1.1113748022578346e-03  3.8903109357523069e-06  -9.4545008047468618e-04  -1.5340922760414674e-03  -1.0536398111064033e-03  -8.8359521275442867e-05  1.6900356518049116e-03  2.7280360690766338e-03  3.0163724159220119e-03  2.8582066582509094e-03  -4.7165597938038991e-04  -2.5841505034760333e-03  -1.4575084637543536e-03  1.2870357491983997e-03  1.0895042134201377e-03  -5.4334705111002725e-04  -2.3122712276462244e-04  1.6030927845212589e-04  3.8580619848181166e-06  -2.1395743288359282e-05  3.7499086274466417e-06  1.2396770039436539e-06  -7.6541100486441259e-07  2.4080440540691085e-07  2.5823731347115637e-07  2.0291915606520314e-08  -1.1469202910947307e-07  2.4422585608989657e-08  4.0151760316970684e-06  -1.2102203850063506e-05  -3.4587750440844654e-11  1.4415171420179915e-10  -9.3136162162995728e-10  3.9399983705237178e-09  -1.0667591651205500e-08  1.8803412740002561e-08  -3.2885405095399064e-08  1.0624298645391162e-07  -2.7564101744876545e-07  3.6526862742593615e-08  2.0271781134438668e-06  -8.6721750881957214e-06  2.5935598636400025e-05  -5.1181047794556598e-05  2.2259730600322409e-05  1.1497007521201403e-04  -3.8920152590593896e-04  4.9197454053772618e-05  1.4160811879334874e-03  1.0896354381815156e-03  -8.7225980272107560e-04  -2.8240086762237352e-03  -2.7501711373273015e-03  -1.8430851932783134e-03  -8.4096336546372603e-04  -6.8555707871681908e-05  9.6553408803645322e-04  1.3677910489706007e-03  1.0794716342501245e-03  -1.9661910897452034e-05  -2.1115949564136523e-03  -3.2171640399522843e-03  -3.1670021778532303e-03  -2.3191219472158691e-03  -2.5524447926098907e-05  2.4462406012682142e-03  2.4881353860891145e-03  1.1463856755802891e-05  -1.7414792254019319e-03  -9.6027467563965425e-04  7.6967377704759046e-04  2.9768680056923793e-04  -1.3439558149876680e-04  -4.1323235649633308e-05  2.2354825469471755e-05  1.3038201557123516e-05  -6.3010598679508910e-06  -1.6044234812328913e-07  2.2865026028158397e-07  -2.2069521712198444e-07  -1.9573824540399368e-07  -5.4047834758019170e-08  8.1004777736538599e-08  5.0490933151545258e-07  -3.8233003168230147e-06  9.0192002015177237e-06  5.9829377479387105e-06  -8.7488685784486110e-05  2.8408150095968882e-04  -4.6595851528604131e-04  1.2957420278602357e-04  7.0167142368307870e-04  -1.0809008375786122e-03  -5.7294409545416869e-04  1.2449277661022947e-03  1.7223985296932643e-03  1.3854429890722804e-04  -2.0350715553865821e-03  -3.0370084389774849e-03  -3.1104655245096317e-03  -1.9657170482557918e-03  -4.3240409971414124e-04  6.6353487209261798e-04  1.0559537902551294e-03  9.0001890631382568e-04  2.2029307774443411e-04  -2.5829649862358988e-04  -1.6295976964266958e-03  -2.5064933889227567e-03  -2.9561254903774552e-03  -2.4034757020340242e-03  6.5980907132542855e-04  3.0845861319393907e-03  1.5421402293946994e-03  -1.8053636231583914e-03  -1.3683045644453545e-03  1.0505401985727132e-03  3.8551139179997148e-04  -2.9510510754216169e-04  1.5035191120641425e-05  3.1428023871359985e-05  -1.0898760926402271e-05  -9.7511408849197742e-08  1.4311854498822350e-06  -6.8693186804419397e-07  -4.3880408389348087e-07  5.9398200108074282e-08  7.4063259679749690e-08  1.5073386487963155e-07  -4.3772860171719214e-06  1.7783821047870123e-05  7.1464962400624327e-11  -2.8551861578903884e-10  1.9115699808250371e-09  -8.7605048761251761e-09  2.4737963955080091e-08  -4.3203862871774386e-08  5.1744772996110413e-08  -1.2037398878543089e-07  2.8720454090087066e-07  2.1370748074405631e-07  -2.9344187604839625e-06  9.1830553419143381e-06  -2.9465805537957427e-05  5.7539419895963295e-05  -9.8337066047772419e-06  -7.0507545615925861e-05  6.8737060064983735e-04  4.5082148570046928e-04  -1.2147116078889755e-03  -2.0202178770168072e-03  -1.4047095376707793e-03  1.5369374411058057e-03  2.1913405144392936e-03  2.8924944135663246e-03  3.8002329037747046e-03  4.6607203701791201e-03  5.2879862527849247e-03  5.6363753750067599e-03  5.6175763536703317e-03  5.1708951513770376e-03  4.2331965650421830e-03  3.3830825750446360e-03  3.2624293210935808e-03  3.5492481137897542e-03  2.2906463466132289e-03  -3.3717568819728672e-03  -2.8058832055136420e-03  4.2308413503823109e-04  2.7709777504228389e-03  8.2209056627729224e-04  -1.5018711485435894e-03  -5.6308819806842256e-04  4.2319375273871200e-04  4.4958483595603103e-05  -4.8516252808923895e-05  1.9140232928419643e-06  1.2518625181784471e-05  -2.5040854709252343e-06  6.3041594466136614e-07  4.2391161110101928e-07  3.2149705961357535e-07  7.2701654562685297e-08  -1.5597036681241385e-07  -3.8385762776737571e-07  6.0024686079449634e-06  -1.9680243198025755e-05  1.8139509473918681e-05  7.0032069197300718e-05  -3.0393910699591525e-04  6.5039078960317260e-04  -5.9824910708180926e-04  -3.2921719770727517e-04  1.6713517911598763e-03  2.5826919499368818e-04  -2.0161422248937458e-03  -3.0015225210178616e-03  7.8994424470505830e-04  2.8653157029593012e-03  3.2460104287134915e-03  3.6753075826185468e-03  4.5776986774356638e-03  5.2726644436333443e-03  5.5730890944787458e-03  5.4875954789013245e-03  5.0785102508220598e-03  4.4028346319553331e-03  3.5012335612948963e-03  2.6731018645937904e-03  2.3664943568572207e-03  1.8022016026277184e-03  1.0391881195709171e-03  -1.1414742138585992e-03  -3.0419121698685814e-03  -3.5922496268143500e-04  2.5203660709384027e-03  1.1088391570599023e-03  -1.6812749803915387e-03  -3.0594498210845570e-04  5.8324124846689427e-04  -7.5054032010983765e-05  -4.4952169956975677e-05  2.2744259130954661e-05  -3.9674967220888549e-06  -1.7150056717558346e-06  1.5346576660627548e-06  6.4931893097155677e-07  -2.1295210180960781e-07  -9.2913440095427222e-08  -2.6453364805415685e-07  4.7280513004622992e-06  -2.3333961349509860e-05  -2.1242079028289616e-10  6.6858849361482401e-10  -4.3164928155759568e-09  1.9906034518933770e-08  -5.8380969636479104e-08  9.9108145878853685e-08  -8.5017233432201060e-08  1.0708888587129754e-07  -7.6492141415349054e-08  -1.6422586380820801e-06  5.9733750579031166e-06  -8.2338019365298200e-06  1.7137956170449216e-05  -4.1245887426897696e-05  -8.3850268401072504e-05  3.3318252680189861e-04  -5.1114517003924783e-04  -1.4843772872181950e-03  -7.8858723385775357e-04  1.3985702794672393e-03  3.1779665781960552e-03  5.3368981592865497e-03  7.2906738265796972e-03  1.0707975413726754e-02  1.5146520779208765e-02  1.9482466910026430e-02  2.2869912108830392e-02  2.4834597378909345e-02  2.5118745822506488e-02  2.3681645794518133e-02  2.0727664347062212e-02  1.6658301467228513e-02  1.2170905013478324e-02  8.3017909803228644e-03  5.5921032561728297e-03  3.1864773455980901e-03  3.1002994280338531e-03  2.2520885500148290e-03  -3.8797032741320764e-03  -5.0868971482965532e-04  2.5541610651671500e-03  4.2090658921150508e-04  -1.2730269971238156e-03  -1.4980207371866253e-05  1.6044041577465364e-04  -1.5458463962415223e-05  -9.8932397216454594e-06  7.5249697005102922e-06  -2.7343839332472672e-06  -2.6432324799663421e-07  -6.5741540987857184e-07  -8.0590577701935288e-08  2.8097742893921888e-07  -1.4449475177598162e-08  -6.2319876944063855e-06  3.6936763360241446e-05  -6.1647760210235827e-05  9.8933405665897710e-06  2.0899885553187322e-04  -6.5985020096001211e-04  1.2863297202128545e-03  4.1780424869333647e-05  -2.9222427151614342e-03  4.2266544053639482e-04  2.1571741518844629e-03  3.4195637697830667e-03  5.5089034388869111e-03  8.1372069658839138e-03  1.1974645226059202e-02  1.6430759124134161e-02  2.0455130661425777e-02  2.3353954738008369e-02  2.4747152991338384e-02  2.4458450680546119e-02  2.2524433396456888e-02  1.9189586396101133e-02  1.4922787923781685e-02  1.0573206972100744e-02  7.2573745824718941e-03  5.3325521932914262e-03  3.3933005989841970e-03  1.8766367074030564e-03  1.6146140251793073e-03  -4.6780281707281275e-04  -2.6300784650298836e-03  2.6639621842337391e-04  2.0760252065082693e-03  -3.5474683950956627e-04  -8.4800023805831147e-04  3.1881354732906866e-04  5.1453813542016553e-05  -4.5441485174486796e-05  1.3493675125936214e-05  7.0432148637649629e-07  -2.6650941238177278e-06  -8.3940788347894490e-07  5.2788100303741183e-07  9.2658479202851684e-08  4.2270947293099402e-07  -5.3750724094531107e-06  2.8742588730805284e-05  4.6279156461253646e-10  -1.4518701305171188e-09  9.2528514599642987e-09  -4.4798826004566448e-08  1.3496555450701371e-07  -2.1765042292848304e-07  1.1611407718260035e-07  1.7988444827735346e-07  -7.4629521126302464e-07  7.2594126425344628e-06  -1.6035027300268320e-05  9.5926191707370569e-06  2.5397172232435000e-05  1.2582229535289060e-04  6.8475989672086928e-04  -8.2744733485660266e-04  -1.0479008037994288e-03  1.7991874259618175e-03  4.1126988956695686e-03  7.8594249428297208e-03  1.8295594533977121e-02  4.6703372363609413e-02  9.9301776687482829e-02  1.6277501305339692e-01  2.1810655901130979e-01  2.5869460444978343e-01  2.8556791632494161e-01  2.9992677538040685e-01  3.0197977130480097e-01  2.9173002406706111e-01  2.6916821071052949e-01  2.3357711722009580e-01  1.8351078898812717e-01  1.2167369764036313e-01  6.3185100124461754e-02  2.6062613911907333e-02  1.0470871061029419e-02  5.1745832179199251e-03  2.9284280287335679e-03  2.9577674385037143e-03  -3.0602615634017808e-03  6.6131998470923164e-05  2.0622779584973622e-03  -4.1225662965554326e-04  -4.7319807041343407e-04  1.5101033454501230e-04  3.0378879669993745e-05  -1.1166943375133487e-05  6.8952565629137567e-06  -9.4805245078683494e-08  1.5221287086166078e-06  -6.7886706297945848e-08  -3.3858981141989093e-07  1.3226184638842935e-06  5.1444014691855912e-06  -5.1863410493743524e-05  1.3557039722016131e-04  -1.8431096742920280e-04  1.3025187599822289e-04  8.9350764127591126e-04  -2.2511515674184133e-03  8.4593491936861380e-04  2.3091295095117388e-03  5.0790476231759524e-03  1.0144920100994643e-02  2.5461964487252530e-02  6.1984327425229295e-02  1.1995406213922906e-01  1.8163157851079165e-01  2.3161282279801229e-01  2.6700219833504663e-01  2.8931360251541677e-01  2.9940665632223290e-01  2.9738595703067477e-01  2.8324592647658875e-01  2.5668399761051319e-01  2.1637668814299249e-01  1.6126908343916810e-01  9.8131490313157002e-02  4.6050443875108885e-02  1.8048247476885878e-02  7.9101414246024113e-03  4.6491469536770764e-03  2.6068195038249390e-03  1.9692874988547515e-03  -1.2433930493259931e-03  -1.4670707598013306e-03  1.4690709975364697e-03  7.1822055304648523e-04  -7.2243974643103348e-04  9.1503204798554723e-05  8.8906814849077975e-05  -3.5165094917853206e-05  4.5487059249833689e-06  3.9655412914097170e-06  1.0214523125104179e-06  -1.0695105597723924e-06  8.0329740582702253e-09  -6.4588230108224012e-07  6.3635783887336274e-06  -3.4053888311494438e-05  -8.6233453458623991e-10  2.5012391071224317e-09  -1.7923833407659906e-08  9.4743133713229346e-08  -2.9500066681058805e-07  4.8791328949111261e-07  8.4564100824978996e-08  -8.7715911980239705e-07  4.5206175504311032e-06  -1.9254286555404668e-05  4.8147465374802644e-05  -3.8952371715895155e-05  -2.5285366334338230e-05  1.3478038645198538e-04  -1.8263728351043255e-03  1.5943447484936073e-03  3.9923969875660763e-03  9.5324241775553466e-03  2.9973367544757511e-02  9.4509644542143431e-02  2.2480992240438205e-01  4.1701126676451883e-01  6.1524368764659099e-01  7.4756962724135578e-01  8.1516017214068981e-01  8.4861504410395583e-01  8.6600825111466573e-01  8.7418020655377748e-01  8.7529301032617735e-01  8.6959166278736288e-01  8.5574655227238550e-01  8.2914119902922379e-01  7.7677846437540476e-01  6.7147436887119905e-01  4.9384137915040810e-01  2.9210601579936740e-01  1.3816123891587445e-01  4.9678951319504200e-02  1.5136921827346963e-02  6.2183994290330820e-03  3.3578757401534131e-03  2.3369163887669796e-03  -2.7724113125636683e-03  1.2812879785187115e-03  7.4534089210591002e-04  -5.9641812467813894e-04  5.4838444238329810e-05  5.0940860693238296e-05  -1.4218185599878697e-05  6.5744368038427587e-07  -2.5939565958013481e-06  3.6173296625416802e-07  6.1465262201235355e-07  -1.6735358433702439e-06  5.9005451286315951e-06  6.4943365701923067e-05  -2.4429384981159807e-04  4.8132902565191778e-04  -6.7981591484235970e-04  -9.8693184911279280e-04  2.1146541152923808e-03  5.7996517065420795e-03  1.4640095478083306e-02  4.8486140707191996e-02  1.3559526405707839e-01  2.8792479568033552e-01  4.8890157844430682e-01  6.6770106819456398e-01  7.7444839452444225e-01  8.2752235945051489e-01  8.5434245871072034e-01  8.6821384902850096e-01  8.7390232258190970e-01  8.7279359084355446e-01  8.6464263950698950e-01  8.4723070531909594e-01  8.1357283030218575e-01  7.4536227511937503e-01  6.1210115360251793e-01  4.1377657256329570e-01  2.2269661246762099e-01  9.3498419289506196e-02  2.9642635122799351e-02  9.5956448373698041e-03  4.9570444220845009e-03  2.9072752126482935e-03  1.4607783915572467e-03  -1.9096436539468744e-03  2.6682954239900218e-04  1.0646223079694270e-03  -4.6487468794908154e-04  -3.2971252720215346e-05  8.7190093127122926e-05  -1.6626232492229593e-05  -3.6433499553050339e-06  -5.7196958753939396e-07  1.8016890509615037e-06  -2.7086074908346085e-07  9.8402529845296622e-07  -7.7552422961297265e-06  3.9371688774977232e-05  1.4490672538883231e-09  -3.6265950323687664e-09  2.9178503637715704e-08  -1.7539425173221443e-07  6.3061145208841826e-07  -8.8173621524835190e-07  -3.4269598314112581e-07  5.1123147486319729e-06  -1.0319613960695207e-05  4.8450314841495796e-05  -1.2861651794746412e-04  2.2551266904791891e-04  -9.1571541676112135e-05  -3.7678499720589508e-05  2.6597298155642212e-03  7.8476441229269230e-03  2.6332784384903524e-02  1.0405537795783895e-01  2.9651101130646418e-01  5.7814105390832549e-01  7.9867678647320151e-01  9.1368297439562318e-01  9.6584646540542540e-01  9.8644525109902181e-01  9.9388755961760678e-01  9.9673725158103332e-01  9.9797221792871893e-01  9.9849515288968760e-01  9.9855836754842975e-01  9.9818738453539191e-01  9.9722712996843432e-01  9.9509362757015962e-01  9.8983549021422734e-01  9.7553249716174517e-01  9.3809921482322511e-01  8.5328523163321590e-01  6.8174832763087889e-01  4.1300986489264718e-01  1.7341520465995344e-01  5.0633312130456236e-02  1.3354399307936696e-02  5.7054856895024895e-03  3.4566382002718353e-03  -4.6170651833209501e-04  -7.0928802202365794e-04  1.1991026743932540e-03  -4.0836289456958736e-04  -2.7318225472325243e-05  5.9767999052483013e-05  -4.2525809526064435e-06  3.6500567548285245e-06  1.2187384616448019e-07  -1.4490363938288971e-06  6.2465831703481756e-06  -2.5470025555035706e-05  -5.0756758858248118e-05  4.0938321343319937e-04  -9.8405483254267742e-04  1.3736208831835932e-03  4.1793830037826106e-03  1.2899885029319399e-02  4.9457543630647138e-02  1.7014686828379871e-01  4.0745111028841341e-01  6.7695410237583087e-01  8.5059373929673365e-01  9.3675211010288140e-01  9.7493854593782825e-01  9.8957739821436441e-01  9.9494976959012915e-01  9.9711559014647955e-01  9.9808301837969149e-01  9.9845443403981216e-01  9.9838997673543173e-01  9.9786397212220390e-01  9.9661843534065819e-01  9.9373103326748502e-01  9.8616897301315254e-01  9.6526335452965795e-01  9.1254026593868565e-01  7.9670564960476242e-01  5.7533853641507360e-01  2.9429363714891138e-01  1.0312360195434428e-01  2.6131920297534233e-02  7.9944493150076682e-03  4.2195691667486343e-03  2.7324907623600078e-03  -9.5858910779960717e-04  -8.4478821604766453e-04  1.1001022963507540e-03  -2.3005095467069125e-04  -7.6872093766383362e-05  5.7072469103567215e-05  3.0881581038294736e-06  -2.8436016330855292e-07  -1.5124730863770786e-06  4.6017067686939720e-07  -1.4133961447113040e-06  9.6525928990149860e-06  -4.4902411982713804e-05  -3.8209710494241663e-09  6.1345702838973175e-09  -3.8347542586928763e-08  3.0603072838732163e-07  -1.0901793188336305e-06  1.9888527942033635e-06  3.2969524968852468e-06  -1.2489487511476538e-05  3.0932660217883288e-05  -9.83693634198