<?xml version="1.0"?>
<VTKFile type="UnstructuredGrid"  version="0.1"  >
<UnstructuredGrid>
<Piece  NumberOfPoints="11156" NumberOfCells="22000">
<Points>
<DataArray  type="Float64"  NumberOfComponents="3"  format="ascii">0 0 0  2 0 0  4 0 0  6 0 0  8 0 0  10 0 0  12 0 0  14 0 0  16 0 0  18 0 0  20 0 0  22 0 0  24 0 0  26 0 0  28 0 0  30 0 0  32 0 0  34 0 0  36 0 0  38 0 0  40 0 0  42 0 0  44 0 0  46 0 0  48 0 0  50 0 0  52 0 0  54 0 0  56 0 0  58 0 0  60 0 0  62 0 0  64 0 0  66 0 0  68 0 0  70 0 0  72 0 0  74 0 0  76 0 0  78 0 0  80 0 0  82 0 0  84 0 0  86 0 0  88 0 0  90 0 0  92 0 0  94 0 0  96 0 0  98 0 0  100 0 0  102 0 0  104 0 0  106 0 0  108 0 0  110 0 0  112 0 0  114 0 0  116 0 0  118 0 0  120 0 0  122 0 0  124 0 0  126 0 0  128 0 0  130 0 0  132 0 0  134 0 0  136 0 0  138 0 0  140 0 0  142 0 0  144 0 0  146 0 0  148 0 0  150 0 0  152 0 0  154 0 0  156 0 0  158 0 0  160 0 0  162 0 0  164 0 0  166 0 0  168 0 0  170 0 0  172 0 0  174 0 0  176 0 0  178 0 0  180 0 0  182 0 0  184 0 0  186 0 0  188 0 0  190 0 0  192 0 0  194 0 0  196 0 0  198 0 0  200 0 0  0 2 0  2 2 0  4 2 0  6 2 0  8 2 0  10 2 0  12 2 0  14 2 0  16 2 0  18 2 0  20 2 0  22 2 0  24 2 0  26 2 0  28 2 0  30 2 0  32 2 0  34 2 0  36 2 0  38 2 0  40 2 0  42 2 0  44 2 0  46 2 0  48 2 0  50 2 0  52 2 0  54 2 0  56 2 0  58 2 0  60 2 0  62 2 0  64 2 0  66 2 0  68 2 0  70 2 0  72 2 0  74 2 0  76 2 0  78 2 0  80 2 0  82 2 0  84 2 0  86 2 0  88 2 0  90 2 0  92 2 0  94 2 0  96 2 0  98 2 0  100 2 0  102 2 0  104 2 0  106 2 0  108 2 0  110 2 0  112 2 0  114 2 0  116 2 0  118 2 0  120 2 0  122 2 0  124 2 0  126 2 0  128 2 0  130 2 0  132 2 0  134 2 0  136 2 0  138 2 0  140 2 0  142 2 0  144 2 0  146 2 0  148 2 0  150 2 0  152 2 0  154 2 0  156 2 0  158 2 0  160 2 0  162 2 0  164 2 0  166 2 0  168 2 0  170 2 0  172 2 0  174 2 0  176 2 0  178 2 0  180 2 0  182 2 0  184 2 0  186 2 0  188 2 0  190 2 0  192 2 0  194 2 0  196 2 0  198 2 0  200 2 0  0 4 0  2 4 0  4 4 0  6 4 0  8 4 0  10 4 0  12 4 0  14 4 0  16 4 0  18 4 0  20 4 0  22 4 0  24 4 0  26 4 0  28 4 0  30 4 0  32 4 0  34 4 0  36 4 0  38 4 0  40 4 0  42 4 0  44 4 0  46 4 0  48 4 0  50 4 0  52 4 0  54 4 0  56 4 0  58 4 0  60 4 0  62 4 0  64 4 0  66 4 0  68 4 0  70 4 0  72 4 0  74 4 0  76 4 0  78 4 0  80 4 0  82 4 0  84 4 0  86 4 0  88 4 0  90 4 0  92 4 0  94 4 0  96 4 0  98 4 0  100 4 0  102 4 0  104 4 0  106 4 0  108 4 0  110 4 0  112 4 0  114 4 0  116 4 0  118 4 0  120 4 0  122 4 0  124 4 0  126 4 0  128 4 0  130 4 0  132 4 0  134 4 0  136 4 0  138 4 0  140 4 0  142 4 0  144 4 0  146 4 0  148 4 0  150 4 0  152 4 0  154 4 0  156 4 0  158 4 0  160 4 0  162 4 0  164 4 0  166 4 0  168 4 0  170 4 0  172 4 0  174 4 0  176 4 0  178 4 0  180 4 0  182 4 0  184 4 0  186 4 0  188 4 0  190 4 0  192 4 0  194 4 0  196 4 0  198 4 0  200 4 0  0 6 0  2 6 0  4 6 0  6 6 0  8 6 0  10 6 0  12 6 0  14 6 0  16 6 0  18 6 0  20 6 0  22 6 0  24 6 0  26 6 0  28 6 0  30 6 0  32 6 0  34 6 0  36 6 0  38 6 0  40 6 0  42 6 0  44 6 0  46 6 0  48 6 0  50 6 0  52 6 0  54 6 0  56 6 0  58 6 0  60 6 0  62 6 0  64 6 0  66 6 0  68 6 0  70 6 0  72 6 0  74 6 0  76 6 0  78 6 0  80 6 0  82 6 0  84 6 0  86 6 0  88 6 0  90 6 0  92 6 0  94 6 0  96 6 0  98 6 0  100 6 0  102 6 0  104 6 0  106 6 0  108 6 0  110 6 0  112 6 0  114 6 0  116 6 0  118 6 0  120 6 0  122 6 0  124 6 0  126 6 0  128 6 0  130 6 0  132 6 0  134 6 0  136 6 0  138 6 0  140 6 0  142 6 0  144 6 0  146 6 0  148 6 0  150 6 0  152 6 0  154 6 0  156 6 0  158 6 0  160 6 0  162 6 0  164 6 0  166 6 0  168 6 0  170 6 0  172 6 0  174 6 0  176 6 0  178 6 0  180 6 0  182 6 0  184 6 0  186 6 0  188 6 0  190 6 0  192 6 0  194 6 0  196 6 0  198 6 0  200 6 0  0 8 0  2 8 0  4 8 0  6 8 0  8 8 0  10 8 0  12 8 0  14 8 0  16 8 0  18 8 0  20 8 0  22 8 0  24 8 0  26 8 0  28 8 0  30 8 0  32 8 0  34 8 0  36 8 0  38 8 0  40 8 0  42 8 0  44 8 0  46 8 0  48 8 0  50 8 0  52 8 0  54 8 0  56 8 0  58 8 0  60 8 0  62 8 0  64 8 0  66 8 0  68 8 0  70 8 0  72 8 0  74 8 0  76 8 0  78 8 0  80 8 0  82 8 0  84 8 0  86 8 0  88 8 0  90 8 0  92 8 0  94 8 0  96 8 0  98 8 0  100 8 0  102 8 0  104 8 0  106 8 0  108 8 0  110 8 0  112 8 0  114 8 0  116 8 0  118 8 0  120 8 0  122 8 0  124 8 0  126 8 0  128 8 0  130 8 0  132 8 0  134 8 0  136 8 0  138 8 0  140 8 0  142 8 0  144 8 0  146 8 0  148 8 0  150 8 0  152 8 0  154 8 0  156 8 0  158 8 0  160 8 0  162 8 0  164 8 0  166 8 0  168 8 0  170 8 0  172 8 0  174 8 0  176 8 0  178 8 0  180 8 0  182 8 0  184 8 0  186 8 0  188 8 0  190 8 0  192 8 0  194 8 0  196 8 0  198 8 0  200 8 0  0 10 0  2 10 0  4 10 0  6 10 0  8 10 0  10 10 0  12 10 0  14 10 0  16 10 0  18 10 0  20 10 0  22 10 0  24 10 0  26 10 0  28 10 0  30 10 0  32 10 0  34 10 0  36 10 0  38 10 0  40 10 0  42 10 0  44 10 0  46 10 0  48 10 0  50 10 0  52 10 0  54 10 0  56 10 0  58 10 0  60 10 0  62 10 0  64 10 0  66 10 0  68 10 0  70 10 0  72 10 0  74 10 0  76 10 0  78 10 0  80 10 0  82 10 0  84 10 0  86 10 0  88 10 0  90 10 0  92 10 0  94 10 0  96 10 0  98 10 0  100 10 0  102 10 0  104 10 0  106 10 0  108 10 0  110 10 0  112 10 0  114 10 0  116 10 0  118 10 0  120 10 0  122 10 0  124 10 0  126 10 0  128 10 0  130 10 0  132 10 0  134 10 0  136 10 0  138 10 0  140 10 0  142 10 0  144 10 0  146 10 0  148 10 0  150 10 0  152 10 0  154 10 0  156 10 0  158 10 0  160 10 0  162 10 0  164 10 0  166 10 0  168 10 0  170 10 0  172 10 0  174 10 0  176 10 0  178 10 0  180 10 0  182 10 0  184 10 0  186 10 0  188 10 0  190 10 0  192 10 0  194 10 0  196 10 0  198 10 0  200 10 0  0 12 0  2 12 0  4 12 0  6 12 0  8 12 0  10 12 0  12 12 0  14 12 0  16 12 0  18 12 0  20 12 0  22 12 0  24 12 0  26 12 0  28 12 0  30 12 0  32 12 0  34 12 0  36 12 0  38 12 0  40 12 0  42 12 0  44 12 0  46 12 0  48 12 0  50 12 0  52 12 0  54 12 0  56 12 0  58 12 0  60 12 0  62 12 0  64 12 0  66 12 0  68 12 0  70 12 0  72 12 0  74 12 0  76 12 0  78 12 0  80 12 0  82 12 0  84 12 0  86 12 0  88 12 0  90 12 0  92 12 0  94 12 0  96 12 0  98 12 0  100 12 0  102 12 0  104 12 0  106 12 0  108 12 0  110 12 0  112 12 0  114 12 0  116 12 0  118 12 0  120 12 0  122 12 0  124 12 0  126 12 0  128 12 0  130 12 0  132 12 0  134 12 0  136 12 0  138 12 0  140 12 0  142 12 0  144 12 0  146 12 0  148 12 0  150 12 0  152 12 0  154 12 0  156 12 0  158 12 0  160 12 0  162 12 0  164 12 0  166 12 0  168 12 0  170 12 0  172 12 0  174 12 0  176 12 0  178 12 0  180 12 0  182 12 0  184 12 0  186 12 0  188 12 0  190 12 0  192 12 0  194 12 0  196 12 0  198 12 0  200 12 0  0 14 0  2 14 0  4 14 0  6 14 0  8 14 0  10 14 0  12 14 0  14 14 0  16 14 0  18 14 0  20 14 0  22 14 0  24 14 0  26 14 0  28 14 0  30 14 0  32 14 0  34 14 0  36 14 0  38 14 0  40 14 0  42 14 0  44 14 0  46 14 0  48 14 0  50 14 0  52 14 0  54 14 0  56 14 0  58 14 0  60 14 0  62 14 0  64 14 0  66 14 0  68 14 0  70 14 0  72 14 0  74 14 0  76 14 0  78 14 0  80 14 0  82 14 0  84 14 0  86 14 0  88 14 0  90 14 0  92 14 0  94 14 0  96 14 0  98 14 0  100 14 0  102 14 0  104 14 0  106 14 0  108 14 0  110 14 0  112 14 0  114 14 0  116 14 0  118 14 0  120 14 0  122 14 0  124 14 0  126 14 0  128 14 0  130 14 0  132 14 0  134 14 0  136 14 0  138 14 0  140 14 0  142 14 0  144 14 0  146 14 0  148 14 0  150 14 0  152 14 0  154 14 0  156 14 0  158 14 0  160 14 0  162 14 0  164 14 0  166 14 0  168 14 0  170 14 0  172 14 0  174 14 0  176 14 0  178 14 0  180 14 0  182 14 0  184 14 0  186 14 0  188 14 0  190 14 0  192 14 0  194 14 0  196 14 0  198 14 0  200 14 0  0 16 0  2 16 0  4 16 0  6 16 0  8 16 0  10 16 0  12 16 0  14 16 0  16 16 0  18 16 0  20 16 0  22 16 0  24 16 0  26 16 0  28 16 0  30 16 0  32 16 0  34 16 0  36 16 0  38 16 0  40 16 0  42 16 0  44 16 0  46 16 0  48 16 0  50 16 0  52 16 0  54 16 0  56 16 0  58 16 0  60 16 0  62 16 0  64 16 0  66 16 0  68 16 0  70 16 0  72 16 0  74 16 0  76 16 0  78 16 0  80 16 0  82 16 0  84 16 0  86 16 0  88 16 0  90 16 0  92 16 0  94 16 0  96 16 0  98 16 0  100 16 0  102 16 0  104 16 0  106 16 0  108 16 0  110 16 0  112 16 0  114 16 0  116 16 0  118 16 0  120 16 0  122 16 0  124 16 0  126 16 0  128 16 0  130 16 0  132 16 0  134 16 0  136 16 0  138 16 0  140 16 0  142 16 0  144 16 0  146 16 0  148 16 0  150 16 0  152 16 0  154 16 0  156 16 0  158 16 0  160 16 0  162 16 0  164 16 0  166 16 0  168 16 0  170 16 0  172 16 0  174 16 0  176 16 0  178 16 0  180 16 0  182 16 0  184 16 0  186 16 0  188 16 0  190 16 0  192 16 0  194 16 0  196 16 0  198 16 0  200 16 0  0 18 0  2 18 0  4 18 0  6 18 0  8 18 0  10 18 0  12 18 0  14 18 0  16 18 0  18 18 0  20 18 0  22 18 0  24 18 0  26 18 0  28 18 0  30 18 0  32 18 0  34 18 0  36 18 0  38 18 0  40 18 0  42 18 0  44 18 0  46 18 0  48 18 0  50 18 0  52 18 0  54 18 0  56 18 0  58 18 0  60 18 0  62 18 0  64 18 0  66 18 0  68 18 0  70 18 0  72 18 0  74 18 0  76 18 0  78 18 0  80 18 0  82 18 0  84 18 0  86 18 0  88 18 0  90 18 0  92 18 0  94 18 0  96 18 0  98 18 0  100 18 0  102 18 0  104 18 0  106 18 0  108 18 0  110 18 0  112 18 0  114 18 0  116 18 0  118 18 0  120 18 0  122 18 0  124 18 0  126 18 0  128 18 0  130 18 0  132 18 0  134 18 0  136 18 0  138 18 0  140 18 0  142 18 0  144 18 0  146 18 0  148 18 0  150 18 0  152 18 0  154 18 0  156 18 0  158 18 0  160 18 0  162 18 0  164 18 0  166 18 0  168 18 0  170 18 0  172 18 0  174 18 0  176 18 0  178 18 0  180 18 0  182 18 0  184 18 0  186 18 0  188 18 0  190 18 0  192 18 0  194 18 0  196 18 0  198 18 0  200 18 0  0 20 0  2 20 0  4 20 0  6 20 0  8 20 0  10 20 0  12 20 0  14 20 0  16 20 0  18 20 0  20 20 0  22 20 0  24 20 0  26 20 0  28 20 0  30 20 0  32 20 0  34 20 0  36 20 0  38 20 0  40 20 0  42 20 0  44 20 0  46 20 0  48 20 0  50 20 0  52 20 0  54 20 0  56 20 0  58 20 0  60 20 0  62 20 0  64 20 0  66 20 0  68 20 0  70 20 0  72 20 0  74 20 0  76 20 0  78 20 0  80 20 0  82 20 0  84 20 0  86 20 0  88 20 0  90 20 0  92 20 0  94 20 0  96 20 0  98 20 0  100 20 0  102 20 0  104 20 0  106 20 0  108 20 0  110 20 0  112 20 0  114 20 0  116 20 0  118 20 0  120 20 0  122 20 0  124 20 0  126 20 0  128 20 0  130 20 0  132 20 0  134 20 0  136 20 0  138 20 0  140 20 0  142 20 0  144 20 0  146 20 0  148 20 0  150 20 0  152 20 0  154 20 0  156 20 0
[...]
<PointData  Scalars="C"> 
<DataArray  type="Float64"  Name="C"  format="ascii">-3.2552666040618627e-11  1.6169184087823988e-10  -8.2877530455751387e-10  3.0096819440369862e-09  -8.2380514157624698e-09  1.8732224363742451e-08  -3.6734968670934653e-08  3.5230118897929512e-08  1.4348878444622750e-07  -6.9198034041701247e-07  8.5180203653572559e-07  2.0128512091502630e-06  -1.1065625976956051e-05  2.5555939863514826e-05  -2.8834408148468685e-05  -9.7221191396704555e-07  3.3295332469546724e-05  -4.8557501375294183e-05  9.2613458364668990e-05  2.6477214335645125e-04  -1.9346671786892519e-04  -1.1355714828436352e-03  -1.9743875325267438e-03  -1.8247532199096514e-03  -4.9470868077878638e-04  5.1743835232516736e-04  8.0928265524292614e-04  6.6454917298210754e-04  3.4027398537599514e-04  -5.3558180820289147e-04  -1.1347865221580835e-03  -1.7860263778400789e-03  -2.3821311017919421e-03  -2.6817374273081832e-03  -1.6102457784204719e-03  6.6379573559234811e-04  1.3374889303897147e-03  1.0481747504023746e-03  1.1480776800665997e-05  -2.8263620228138723e-04  -2.4267989747011896e-04  6.6273552841712182e-05  1.4399197737020847e-04  -4.7465441208041253e-05  -3.2252760550170201e-05  1.1670832170853104e-05  3.0526155918362690e-06  -1.5537000649279181e-06  -1.2191882667875220e-07  1.2972373148700591e-08  -6.4645570396300561e-08  -8.1458387669484520e-08  -3.6205436886719927e-08  6.3466456668232838e-07  -2.0449769529959517e-06  6.9549889101684457e-07  1.7592535016171418e-05  -7.5714239354224999e-05  1.6772237006227374e-04  -1.5696674439838633e-04  -1.7535008069954430e-04  5.9028644430901122e-04  -1.1832605270863365e-04  -9.3827848917007897e-04  5.6438248929837786e-05  1.6282304074699062e-03  7.3005313347691749e-04  -1.6321530978911120e-03  -2.0310323967526571e-03  -1.7734007036694021e-03  -1.4830870406498920e-03  -8.5927806737131772e-04  1.8689698942545645e-04  1.0638291636546932e-03  1.5292694562387926e-03  1.2118564858414097e-03  -1.7130343870153255e-04  -2.3027900639365443e-03  -2.8954724819358537e-03  -2.7784431293324426e-03  -2.0781284675028375e-03  8.0741062905324726e-04  2.3801863432526310e-03  1.2135796414919303e-03  -9.6572315107970488e-04  -8.8734893777679300e-04  4.0384942339101676e-04  2.1266080430676105e-04  -1.2707892869282390e-04  -2.1842817652678744e-05  1.8541322592004851e-05  3.9037823817078152e-08  -1.6062502647323887e-06  4.5416532681561500e-07  -5.7598454267943113e-08  -2.1827792044223904e-07  -6.0248013786544887e-08  -5.5450745546061646e-08  1.0968648015526360e-06  -8.1151303652188059e-06  1.1828838799330379e-05  -2.3254674583278632e-11  6.5953513786218153e-12  2.1069390066654912e-10  -1.1959350210688520e-09  3.5217722168685613e-09  -8.3856329537195841e-09  2.6943561367994495e-08  -9.3757148657097592e-08  1.4759578263530647e-07  4.2424756476149285e-07  -3.2130099349545826e-06  1.0676112466194561e-05  -2.4975112790850038e-05  3.4051850753986813e-05  7.6835857906653485e-06  -1.4110704195650968e-04  2.2473730309723541e-04  1.2601412363023060e-04  -8.3738480277475568e-04  -6.7822796506258551e-04  1.1783197809535797e-03  2.2812693326015434e-03  2.2412732023969414e-03  1.4556373928538288e-03  1.3419835713409780e-04  -8.6608633094630255e-04  -1.3976179479628140e-03  -8.3050140101325947e-04  -3.2520214338367191e-05  1.2302851212763588e-03  2.0556240685075701e-03  2.2996270317562567e-03  2.4929501971919623e-03  2.2501525755621666e-03  4.8404089642448616e-04  -1.7174663571094225e-03  -1.9094323403496011e-03  -4.6448435281907705e-04  1.1462418577618200e-03  5.4036330253706666e-04  -3.5174156441813704e-04  -8.0577947480805942e-05  2.9518500428278176e-05  4.4829927083038173e-05  1.0059178122370907e-06  -1.1679025017061198e-05  1.9322226475374898e-06  1.1403309239737721e-06  -1.8561274515478112e-07  6.4553545926111282e-08  1.1248732702750693e-07  5.2132945811283624e-08  -4.3204414833561425e-08  -4.3096502409906649e-07  2.3264523730494985e-06  -2.9700819792392933e-06  -1.3937775993593626e-05  8.2404150875835187e-05  -2.1471823815937555e-04  2.6123521973627747e-04  1.3553493735332680e-04  -7.4932293870427790e-04  4.1424918839803930e-04  1.0476556823082947e-03  -4.6838238020951105e-04  -1.7312641227515573e-03  -5.6034241845405409e-04  1.4569965226782274e-03  1.9853625436361141e-03  2.0077000985691150e-03  1.8754203011986915e-03  1.2003753908822617e-03  9.0380656548657751e-05  -8.9854125459562625e-04  -1.5300070480488168e-03  -1.1189056065835509e-03  -2.5756282845302284e-04  1.5425403815688573e-03  2.6164314699781543e-03  2.9130958219490961e-03  2.9544179806783410e-03  -2.6381644745985351e-04  -2.5220035350412857e-03  -1.5667199954275629e-03  1.2567390373847526e-03  1.1591627177321324e-03  -5.5523293756150089e-04  -2.5807687779975247e-04  1.6771396346188053e-04  5.5189956333750625e-06  -2.2477628546350782e-05  3.8736275453383947e-06  1.2892185779634907e-06  -7.9647213810351797e-07  2.4455373214419231e-07  2.6475001121702390e-07  2.0391924622729495e-08  -1.1296521236871062e-07  1.6795396367464978e-08  4.0270212472980686e-06  -1.2113123586668647e-05  -4.2033401965411671e-11  1.5819798527961465e-10  -9.6689389653300456e-10  3.9789401606842382e-09  -1.0536277266279759e-08  1.7983689262233507e-08  -3.0397019932318055e-08  1.0451170746397193e-07  -3.1162308746863078e-07  2.4030174396529561e-07  1.5792616818528325e-06  -8.7805472445476939e-06  3.0097173191585232e-05  -6.7561608550814205e-05  5.1773992835722754e-05  9.5522321092011064e-05  -4.5966841535918372e-04  1.6687778300866513e-04  1.5346210493557522e-03  9.1035977863199115e-04  -1.1276168473865181e-03  -2.8120307182492883e-03  -2.5705879219893699e-03  -1.6442392558515954e-03  -6.6938025583317346e-04  1.1735039519649361e-04  1.0697244820134951e-03  1.4007247338821106e-03  1.0632300504936285e-03  -1.2356768612770488e-04  -2.2068255812069592e-03  -3.1643464329144336e-03  -3.0056006777938750e-03  -2.0031117120776626e-03  2.0922689675327645e-04  2.4071304564333546e-03  2.2486256578718349e-03  -1.7812227958541519e-04  -1.7033997236400155e-03  -8.5361984610545145e-04  8.3053676191645852e-04  2.5693175557897939e-04  -1.4843816171880673e-04  -2.5371152696158606e-05  1.9494322217988582e-05  1.3033067231956449e-05  -6.2971153096334584e-06  -1.0166937235594484e-07  2.0682623368392529e-07  -2.2902335627959845e-07  -1.9849597502664966e-07  -5.2029096082056905e-08  6.9668030800511041e-08  5.8831700699744430e-07  -4.1703011687029346e-06  9.5000222896355173e-06  7.7258288368724971e-06  -9.6881224734969237e-05  3.0614650258954190e-04  -4.9628644259482773e-04  1.4381260329551031e-04  7.1283158706303797e-04  -1.0754353472967732e-03  -5.5516577190049007e-04  1.1236720145166041e-03  1.5925696402743900e-03  3.0766391467759426e-04  -1.7806529015898813e-03  -2.8751079205243946e-03  -3.0733867642146456e-03  -2.0462788122755028e-03  -5.1128827745415507e-04  6.2284613517008772e-04  1.0672862997114815e-03  9.9768096568805657e-04  3.7073119889479323e-04  -8.4275278700641438e-05  -1.4101759429433745e-03  -2.3541421777366358e-03  -2.7829648767630560e-03  -2.5555877878494226e-03  3.1930702636599544e-04  2.9448699390809264e-03  1.7563939670309061e-03  -1.6580685244825377e-03  -1.4781886110019613e-03  1.0289352737181362e-03  4.3877790332188968e-04  -3.0777924617214272e-04  1.0525801756809696e-05  3.3480949186423245e-05  -1.1154919440658734e-05  -1.7508842661191989e-07  1.5077501719877425e-06  -6.9341608413505570e-07  -4.5148405780508710e-07  5.8994245109377881e-08  7.0452347111779857e-08  1.6972459797223364e-07  -4.4168470750056891e-06  1.7779444386774178e-05  9.5366741482998452e-11  -3.3643118164677596e-10  2.0703773949059360e-09  -9.1018749327053277e-09  2.5016706877675000e-08  -4.2572771075185354e-08  4.8537264616902948e-08  -1.1294234290644502e-07  3.0682404159693994e-07  -4.9064786012646997e-08  -2.0726934568367534e-06  8.0911371460657994e-06  -3.2965628210112118e-05  7.8095838833389811e-05  -5.3096783249908624e-05  -1.8181843125995328e-05  7.5195220795983508e-04  3.1208538895092082e-04  -1.2896276069529308e-03  -1.8986193832856743e-03  -1.2444841294587028e-03  1.4639842153187257e-03  2.1061864759585568e-03  2.8543134878802690e-03  3.7623629222936473e-03  4.5734517203092455e-03  5.1645637830317883e-03  5.4941955766408535e-03  5.4744271448882087e-03  5.0363172415936264e-03  4.1296178000591287e-03  3.3315006312323783e-03  3.2295981880551250e-03  3.5132444685476521e-03  2.0164383110023091e-03  -3.4480736132908203e-03  -2.4517595770992763e-03  6.2136298499275888e-04  2.6043220771494384e-03  6.1048795929123201e-04  -1.4903979992054242e-03  -4.7238781042672221e-04  4.3839246444001429e-04  1.8097082014028425e-05  -4.1750523124149486e-05  2.3147451423740876e-06  1.2524434037085497e-05  -2.5369077439711779e-06  7.0189321384832420e-07  4.3743967119984440e-07  3.2215828461946171e-07  7.0492468154574590e-08  -1.4098047729538783e-07  -4.5974672012139304e-07  6.4629769730409515e-06  -2.0893455903897640e-05  1.8596286302450846e-05  7.5485184681636276e-05  -3.1664890602973929e-04  6.6263285351016242e-04  -6.1635136791385629e-04  -3.2073827728661147e-04  1.5520780565606495e-03  3.0008468327304220e-04  -1.7842165137275684e-03  -2.9901771426281728e-03  5.8930515725062835e-04  2.7757445378097097e-03  3.2053082429405115e-03  3.6052317169214271e-03  4.4554825210684637e-03  5.1273404015958861e-03  5.4184417182949716e-03  5.3385572986405453e-03  4.9587586880367133e-03  4.3360028375865906e-03  3.4904503659016844e-03  2.6387196022968290e-03  2.2616992240947235e-03  1.6776921878952984e-03  1.0181302652954481e-03  -8.1919331301721942e-04  -2.9185709571321024e-03  -5.9442979632422612e-04  2.3528389886696933e-03  1.2783091263302334e-03  -1.6186130319980989e-03  -3.9207442459095909e-04  6.0708711218023014e-04  -6.7322284574797717e-05  -4.9677698151362804e-05  2.3323186771691839e-05  -3.8342391089271661e-06  -1.8917332519110797e-06  1.5407565812757377e-06  6.7432895704360214e-07  -2.1162955049911576e-07  -8.4340571980598098e-08  -3.0471027434780731e-07  4.8343700633659413e-06  -2.3264662033832909e-05  -2.7912837844605573e-10  8.2122224241695840e-10  -4.8576876574806477e-09  2.1285892693793015e-08  -6.0295949988811585e-08  9.9427520179231021e-08  -8.1847428278420070e-08  9.4052703417386652e-08  -4.6400473551067592e-08  -1.5075265919627319e-06  4.7277259909764724e-06  -5.6826499762114733e-06  1.7132205722904564e-05  -6.6556162693585659e-05  -3.3194567197683787e-05  2.7862238522929477e-04  -5.5895149788427756e-04  -1.3456779408012197e-03  -8.0955869717741686e-04  1.3080273108072977e-03  3.1378652372847774e-03  5.2249931947769600e-03  7.0979931474353039e-03  1.0394779312332666e-02  1.4689938900726233e-02  1.8860947033792090e-02  2.2082274703251168e-02  2.3935073470552404e-02  2.4212568291458497e-02  2.2884322091698515e-02  2.0113023551837028e-02  1.6237322770083763e-02  1.1905549911798020e-02  8.1297863807703753e-03  5.4583010926788130e-03  3.1558812938257404e-03  3.0685324533154213e-03  2.0600828120677368e-03  -3.7653773093043741e-03  -2.6022134858679039e-04  2.4452570651766221e-03  2.8273786422162582e-04  -1.2597376234249039e-03  2.5245306097926441e-05  1.4623648568819379e-04  -1.6007350377966415e-05  -8.8835500979317901e-06  7.4919559356430635e-06  -2.8836046529146297e-06  -2.4230211011144192e-07  -6.6361174280937028e-07  -8.1421607554771445e-08  2.6343954817269370e-07  3.8588264082656148e-08  -6.4836673333579394e-06  3.8773681063511139e-05  -6.5069068305486846e-05  1.2476585113530007e-05  2.0782884814403636e-04  -6.5587734858099038e-04  1.2582291002678019e-03  8.4721471006880380e-05  -2.8174643702895278e-03  3.3063403222200046e-04  2.1196664404406584e-03  3.3641608205807892e-03  5.3657307741549112e-03  7.9537922222376687e-03  1.1693380085959494e-02  1.5994261425673454e-02  1.9825249620369408e-02  2.2541794063839788e-02  2.3827494105492952e-02  2.3545068507867230e-02  2.1721832059211018e-02  1.8552888799398849e-02  1.4450342020105891e-02  1.0246142391284187e-02  7.0565254070074600e-03  5.2328482413838660e-03  3.4047352434788810e-03  1.8011065309797086e-03  1.4317419600287562e-03  -2.5382322793663726e-04  -2.5259803943316851e-03  8.3528894804515603e-05  2.0356528454102216e-03  -2.3922904065949518e-04  -8.8268037673803264e-04  3.1327015580249448e-04  6.0408149654220455e-05  -4.7550068186374228e-05  1.3329467688825905e-05  1.1003855574414677e-06  -2.6662135985697156e-06  -8.9128366198426262e-07  5.2386573596241173e-07  7.4901167133741884e-08  4.9616141503088898e-07  -5.6015744323384670e-06  2.8539733269084299e-05  6.2161089153283001e-10  -1.8436107257834737e-09  1.0773153144332544e-08  -4.9087871600006658e-08  1.4157965421769283e-07  -2.1860533603547347e-07  1.0590993276004017e-07  2.0152632134357369e-07  -9.1064236841944020e-07  7.5834556047719323e-06  -1.5056395322668555e-05  5.0463833448469739e-06  3.2382442245728051e-05  1.5687464552194085e-04  6.6035387241091133e-04  -7.5398976270516286e-04  -1.0619688217759558e-03  1.7280466668831243e-03  4.0186739370832785e-03  7.6527934518388603e-03  1.7710296276561038e-02  4.5205783597303463e-02  9.6689392571944560e-02  1.5947063722874255e-01  2.1433062577924852e-01  2.5425423276511461e-01  2.8035187386172045e-01  2.9417356081210433e-01  2.9622539885289756e-01  2.8658129108081687e-01  2.6505568935265433e-01  2.3063084206469212e-01  1.8162416481798355e-01  1.2067010301762701e-01  6.2838640543474905e-02  2.6023952267022608e-02  1.0456670586110441e-02  5.1578038738264017e-03  2.9479016175215870e-03  2.8081554045385551e-03  -2.9414786464816746e-03  1.9660055758900772e-04  1.9534026366035346e-03  -4.7036640667532937e-04  -4.4933298732411546e-04  1.4975002485052933e-04  2.8353031942670783e-05  -1.0148316014195232e-05  6.9663438390546921e-06  -2.3621456649195839e-07  1.5774538482353185e-06  -6.9919408952796343e-08  -3.4204497893500702e-07  1.3405413485120634e-06  4.8108104279811958e-06  -5.2994183198499991e-05  1.4209287186139796e-04  -1.9849616027556497e-04  1.5548334063634437e-04  8.9718950908543598e-04  -2.2021585141027387e-03  8.3404798578899447e-04  2.3198497911422243e-03  5.0417918926935219e-03  1.0119181680530562e-02  2.5354692764890659e-02  6.1490933999738116e-02  1.1874575127464529e-01  1.7954123825470686e-01  2.2849498866203027e-01  2.6274883037869784e-01  2.8404453616506375e-01  2.9354172045563448e-01  2.9152152607683818e-01  2.7790924877714535e-01  2.5210737266399186e-01  2.1244703148422209e-01  1.5780762630159093e-01  9.5399437471212156e-02  4.4496876389244641e-02  1.7445201646583027e-02  7.6869030597576790e-03  4.5916903603106241e-03  2.5956709670037479e-03  1.8265371968396700e-03  -1.0442408773097046e-03  -1.4651243407175075e-03  1.3423526235118522e-03  7.6927270938841150e-04  -7.2343314442530656e-04  8.0175265781715467e-05  9.4011221170444526e-05  -3.5421670783525938e-05  3.7146938408798507e-06  3.9861951947279496e-06  1.1287008318134060e-06  -1.0578177993981088e-06  4.1069148570648402e-08  -7.6719620362838423e-07  6.7694326339718763e-06  -3.3643906420844228e-05  -1.1995093825172033e-09  3.3683630048979675e-09  -2.1615971729353353e-08  1.0622720333881093e-07  -3.1293370598882677e-07  4.8529394460674377e-07  1.4673265892301349e-07  -9.5498275067568439e-07  4.9476596655140268e-06  -2.0833573530990785e-05  4.8324894458049450e-05  -3.2013935942163940e-05  -3.3728338306019164e-05  1.2417590898074798e-04  -1.8161013880870710e-03  1.5263145727876532e-03  3.8972032256764117e-03  9.2522083961879692e-03  2.8958883100485694e-02  9.1749716486966379e-02  2.1959180142497123e-01  4.0949911323118382e-01  6.0816456626184812e-01  7.4269963789627413e-01  8.1169039709227286e-01  8.4555854110805895e-01  8.6293935466891680e-01  8.7103654155382870e-01  8.7218016557954936e-01  8.6666143586967692e-01  8.5310875587737245e-01  8.2680053830886890e-01  7.7464294605873840e-01  6.6959993621561531e-01  4.9280839861536474e-01  2.9228893946764389e-01  1.3887302084778286e-01  5.0184788848161445e-02  1.5306207687873576e-02  6.2478535869888822e-03  3.3752385854676037e-03  2.3221545572183191e-03  -2.6510067685557620e-03  1.2876542886495431e-03  6.8433994334125261e-04  -5.9302899772772477e-04  5.9225378317976972e-05  4.8886117736068649e-05  -1.3641639532487637e-05  9.1643896969619632e-07  -2.8136545871099571e-06  3.9535482773414033e-07  6.9393367467561625e-07  -1.8436488924079198e-06  7.7328367714398002e-06  6.2961726207682391e-05  -2.4899260551944103e-04  5.1268304571701806e-04  -7.2749236965775302e-04  -9.4973865631205157e-04  2.1169323557286416e-03  5.8406465529752495e-03  1.4787834904419678e-02  4.8878784080088201e-02  1.3603894928908364e-01  2.8763148927262222e-01  4.8725992241449623e-01  6.6533566104642083e-01  7.7201545182742304e-01  8.2500095322475586e-01  8.5157473675874695e-01  8.6517309851367585e-01  8.7068465257627337e-01  8.6954373561793508e-01  8.6145907056433457e-01  8.4403663166874310e-01  8.0990936031718941e-01  7.4018688909919794e-01  6.0460478710366061e-01  4.0590415840549565e-01  2.1727936704150513e-01  9.0657504822483637e-02  2.8611043709509097e-02  9.3126792357203746e-03  4.8635089862708930e-03  2.8429607439339742e-03  1.4370634960888557e-03  -1.7710543364913966e-03  1.7961792780862038e-04  1.0592879879636047e-03  -4.5174535952149854e-04  -4.2630835121991529e-05  8.8474671602132109e-05  -1.4928639817521879e-05  -3.8001122803749446e-06  -7.4593721632696036e-07  1.7679717784567959e-06  -3.2034737592501412e-07  1.1689579184040696e-06  -8.4020125920033341e-06  3.8677901115959699e-05  2.1087385394006713e-09  -5.3414938723835867e-09  3.7149180494224741e-08  -2.0201773584850133e-07  6.7737223092245310e-07  -8.5206996647307358e-07  -5.7701369207579923e-07  5.4756502338287914e-06  -1.1275853301500490e-05  5.2304016426158820e-05  -1.3194621813335161e-04  2.2234587895636604e-04  -8.2235629038593730e-05  -1.9530419993716581e-05  2.5672087704081306e-03  7.6016182334620519e-03  2.5354152345332809e-02  1.0065509437411491e-01  2.8958264273707940e-01  5.7028343025918404e-01  7.9365839781584269e-01  9.1100835608699460e-01  9.6455851564387962e-01  9.8587588017230021e-01  9.9359260279746675e-01  9.9652392858908034e-01  9.9777611688159695e-01  9.9829993335387357e-01  9.9836386050629256e-01  9.9799746757764118e-01  9.9704318889196941e-01  9.9490820493375909e-01  9.8962702501589583e-01  9.7528380672993242e-01  9.3791942100394365e-01  8.5363547140342255e-01  6.8332905986546499e-01  4.1539960803818132e-01  1.7490285044273646e-01  5.1119894916306238e-02  1.3461323245751954e-02  5.7728511503482936e-03  3.4591995309488856e-03  -2.8863171466244779e-04  -6.8348954644438401e-04  1.1580515768963532e-03  -4.1382006910336720e-04  -2.1118441386896203e-05  5.7179666984999657e-05  -4.5301428977873698e-06  4.3518823051620894e-06  -2.1301673440037362e-07  -1.7946155027578430e-06  6.9735779474127559e-06  -3.0251254212296350e-05  -3.9038275257347610e-05  3.9830544550542232e-04  -9.9018729807302526e-04  1.5096986964502634e-03  4.2910454157789740e-03  1.2992338356317584e-02  4.9888535360727571e-02  1.7141122689233318e-01  4.0937946597202407e-01  6.7808480950287897e-01  8.5064852503692634e-01  9.3640134788460150e-01  9.7460671660386144e-01  9.8933145983655402e-01  9.9474450709067797e-01  9.9691761089859454e-01  9.9788067353161714e-01  9.9824772650235172e-01  9.9818230539535013e-01  9.9765465988568824e-01  9.9638951829097877e-01  9.9341294421550796e-01  9.8555507503971340e-01  9.6388330233395636e-01  9.0970133200147774e-01  7.9142970913564747e-01  5.6717249312264229e-01  2.8718574136596370e-01  9.9666466705705753e-02  2.5146050624915223e-02  7.7604245358418502e-03  4.1520373467575323e-03  2.6544908868440121e-03  -8.2042478326918859e-04  -8.7881103820906478e-04  1.0800337723896553e-03  -2.1634960816145816e-04  -8.0228980271036387e-05  5.3787400143719867e-05  4.0239730057330792e-06  -4.6099947969406043e-08  -1.3958120718293561e-06  5.1379587515363687e-07  -1.6734877095651782e-06  1.0603751504315144e-05  -4.3844066520208784e-05  -5.1331531610564058e-09  9.4573873792070660e-09  -5.3673550274715354e-08  3.6499497635541882e-07  -1.1917821659952711e-06  1.9238475877274209e-06  4.0746082892782925e-06  -1.3641418524485054e-05  3.2749053920394640e-05  -1.048955425181