<?xml version="1.0"?>
<VTKFile type="UnstructuredGrid"  version="0.1"  >
<UnstructuredGrid>
<Piece  NumberOfPoints="11156" NumberOfCells="22000">
<Points>
<DataArray  type="Float64"  NumberOfComponents="3"  format="ascii">0 0 0  2 0 0  4 0 0  6 0 0  8 0 0  10 0 0  12 0 0  14 0 0  16 0 0  18 0 0  20 0 0  22 0 0  24 0 0  26 0 0  28 0 0  30 0 0  32 0 0  34 0 0  36 0 0  38 0 0  40 0 0  42 0 0  44 0 0  46 0 0  48 0 0  50 0 0  52 0 0  54 0 0  56 0 0  58 0 0  60 0 0  62 0 0  64 0 0  66 0 0  68 0 0  70 0 0  72 0 0  74 0 0  76 0 0  78 0 0  80 0 0  82 0 0  84 0 0  86 0 0  88 0 0  90 0 0  92 0 0  94 0 0  96 0 0  98 0 0  100 0 0  102 0 0  104 0 0  106 0 0  108 0 0  110 0 0  112 0 0  114 0 0  116 0 0  118 0 0  120 0 0  122 0 0  124 0 0  126 0 0  128 0 0  130 0 0  132 0 0  134 0 0  136 0 0  138 0 0  140 0 0  142 0 0  144 0 0  146 0 0  148 0 0  150 0 0  152 0 0  154 0 0  156 0 0  158 0 0  160 0 0  162 0 0  164 0 0  166 0 0  168 0 0  170 0 0  172 0 0  174 0 0  176 0 0  178 0 0  180 0 0  182 0 0  184 0 0  186 0 0  188 0 0  190 0 0  192 0 0  194 0 0  196 0 0  198 0 0  200 0 0  0 2 0  2 2 0  4 2 0  6 2 0  8 2 0  10 2 0  12 2 0  14 2 0  16 2 0  18 2 0  20 2 0  22 2 0  24 2 0  26 2 0  28 2 0  30 2 0  32 2 0  34 2 0  36 2 0  38 2 0  40 2 0  42 2 0  44 2 0  46 2 0  48 2 0  50 2 0  52 2 0  54 2 0  56 2 0  58 2 0  60 2 0  62 2 0  64 2 0  66 2 0  68 2 0  70 2 0  72 2 0  74 2 0  76 2 0  78 2 0  80 2 0  82 2 0  84 2 0  86 2 0  88 2 0  90 2 0  92 2 0  94 2 0  96 2 0  98 2 0  100 2 0  102 2 0  104 2 0  106 2 0  108 2 0  110 2 0  112 2 0  114 2 0  116 2 0  118 2 0  120 2 0  122 2 0  124 2 0  126 2 0  128 2 0  130 2 0  132 2 0  134 2 0  136 2 0  138 2 0  140 2 0  142 2 0  144 2 0  146 2 0  148 2 0  150 2 0  152 2 0  154 2 0  156 2 0  158 2 0  160 2 0  162 2 0  164 2 0  166 2 0  168 2 0  170 2 0  172 2 0  174 2 0  176 2 0  178 2 0  180 2 0  182 2 0  184 2 0  186 2 0  188 2 0  190 2 0  192 2 0  194 2 0  196 2 0  198 2 0  200 2 0  0 4 0  2 4 0  4 4 0  6 4 0  8 4 0  10 4 0  12 4 0  14 4 0  16 4 0  18 4 0  20 4 0  22 4 0  24 4 0  26 4 0  28 4 0  30 4 0  32 4 0  34 4 0  36 4 0  38 4 0  40 4 0  42 4 0  44 4 0  46 4 0  48 4 0  50 4 0  52 4 0  54 4 0  56 4 0  58 4 0  60 4 0  62 4 0  64 4 0  66 4 0  68 4 0  70 4 0  72 4 0  74 4 0  76 4 0  78 4 0  80 4 0  82 4 0  84 4 0  86 4 0  88 4 0  90 4 0  92 4 0  94 4 0  96 4 0  98 4 0  100 4 0  102 4 0  104 4 0  106 4 0  108 4 0  110 4 0  112 4 0  114 4 0  116 4 0  118 4 0  120 4 0  122 4 0  124 4 0  126 4 0  128 4 0  130 4 0  132 4 0  134 4 0  136 4 0  138 4 0  140 4 0  142 4 0  144 4 0  146 4 0  148 4 0  150 4 0  152 4 0  154 4 0  156 4 0  158 4 0  160 4 0  162 4 0  164 4 0  166 4 0  168 4 0  170 4 0  172 4 0  174 4 0  176 4 0  178 4 0  180 4 0  182 4 0  184 4 0  186 4 0  188 4 0  190 4 0  192 4 0  194 4 0  196 4 0  198 4 0  200 4 0  0 6 0  2 6 0  4 6 0  6 6 0  8 6 0  10 6 0  12 6 0  14 6 0  16 6 0  18 6 0  20 6 0  22 6 0  24 6 0  26 6 0  28 6 0  30 6 0  32 6 0  34 6 0  36 6 0  38 6 0  40 6 0  42 6 0  44 6 0  46 6 0  48 6 0  50 6 0  52 6 0  54 6 0  56 6 0  58 6 0  60 6 0  62 6 0  64 6 0  66 6 0  68 6 0  70 6 0  72 6 0  74 6 0  76 6 0  78 6 0  80 6 0  82 6 0  84 6 0  86 6 0  88 6 0  90 6 0  92 6 0  94 6 0  96 6 0  98 6 0  100 6 0  102 6 0  104 6 0  106 6 0  108 6 0  110 6 0  112 6 0  114 6 0  116 6 0  118 6 0  120 6 0  122 6 0  124 6 0  126 6 0  128 6 0  130 6 0  132 6 0  134 6 0  136 6 0  138 6 0  140 6 0  142 6 0  144 6 0  146 6 0  148 6 0  150 6 0  152 6 0  154 6 0  156 6 0  158 6 0  160 6 0  162 6 0  164 6 0  166 6 0  168 6 0  170 6 0  172 6 0  174 6 0  176 6 0  178 6 0  180 6 0  182 6 0  184 6 0  186 6 0  188 6 0  190 6 0  192 6 0  194 6 0  196 6 0  198 6 0  200 6 0  0 8 0  2 8 0  4 8 0  6 8 0  8 8 0  10 8 0  12 8 0  14 8 0  16 8 0  18 8 0  20 8 0  22 8 0  24 8 0  26 8 0  28 8 0  30 8 0  32 8 0  34 8 0  36 8 0  38 8 0  40 8 0  42 8 0  44 8 0  46 8 0  48 8 0  50 8 0  52 8 0  54 8 0  56 8 0  58 8 0  60 8 0  62 8 0  64 8 0  66 8 0  68 8 0  70 8 0  72 8 0  74 8 0  76 8 0  78 8 0  80 8 0  82 8 0  84 8 0  86 8 0  88 8 0  90 8 0  92 8 0  94 8 0  96 8 0  98 8 0  100 8 0  102 8 0  104 8 0  106 8 0  108 8 0  110 8 0  112 8 0  114 8 0  116 8 0  118 8 0  120 8 0  122 8 0  124 8 0  126 8 0  128 8 0  130 8 0  132 8 0  134 8 0  136 8 0  138 8 0  140 8 0  142 8 0  144 8 0  146 8 0  148 8 0  150 8 0  152 8 0  154 8 0  156 8 0  158 8 0  160 8 0  162 8 0  164 8 0  166 8 0  168 8 0  170 8 0  172 8 0  174 8 0  176 8 0  178 8 0  180 8 0  182 8 0  184 8 0  186 8 0  188 8 0  190 8 0  192 8 0  194 8 0  196 8 0  198 8 0  200 8 0  0 10 0  2 10 0  4 10 0  6 10 0  8 10 0  10 10 0  12 10 0  14 10 0  16 10 0  18 10 0  20 10 0  22 10 0  24 10 0  26 10 0  28 10 0  30 10 0  32 10 0  34 10 0  36 10 0  38 10 0  40 10 0  42 10 0  44 10 0  46 10 0  48 10 0  50 10 0  52 10 0  54 10 0  56 10 0  58 10 0  60 10 0  62 10 0  64 10 0  66 10 0  68 10 0  70 10 0  72 10 0  74 10 0  76 10 0  78 10 0  80 10 0  82 10 0  84 10 0  86 10 0  88 10 0  90 10 0  92 10 0  94 10 0  96 10 0  98 10 0  100 10 0  102 10 0  104 10 0  106 10 0  108 10 0  110 10 0  112 10 0  114 10 0  116 10 0  118 10 0  120 10 0  122 10 0  124 10 0  126 10 0  128 10 0  130 10 0  132 10 0  134 10 0  136 10 0  138 10 0  140 10 0  142 10 0  144 10 0  146 10 0  148 10 0  150 10 0  152 10 0  154 10 0  156 10 0  158 10 0  160 10 0  162 10 0  164 10 0  166 10 0  168 10 0  170 10 0  172 10 0  174 10 0  176 10 0  178 10 0  180 10 0  182 10 0  184 10 0  186 10 0  188 10 0  190 10 0  192 10 0  194 10 0  196 10 0  198 10 0  200 10 0  0 12 0  2 12 0  4 12 0  6 12 0  8 12 0  10 12 0  12 12 0  14 12 0  16 12 0  18 12 0  20 12 0  22 12 0  24 12 0  26 12 0  28 12 0  30 12 0  32 12 0  34 12 0  36 12 0  38 12 0  40 12 0  42 12 0  44 12 0  46 12 0  48 12 0  50 12 0  52 12 0  54 12 0  56 12 0  58 12 0  60 12 0  62 12 0  64 12 0  66 12 0  68 12 0  70 12 0  72 12 0  74 12 0  76 12 0  78 12 0  80 12 0  82 12 0  84 12 0  86 12 0  88 12 0  90 12 0  92 12 0  94 12 0  96 12 0  98 12 0  100 12 0  102 12 0  104 12 0  106 12 0  108 12 0  110 12 0  112 12 0  114 12 0  116 12 0  118 12 0  120 12 0  122 12 0  124 12 0  126 12 0  128 12 0  130 12 0  132 12 0  134 12 0  136 12 0  138 12 0  140 12 0  142 12 0  144 12 0  146 12 0  148 12 0  150 12 0  152 12 0  154 12 0  156 12 0  158 12 0  160 12 0  162 12 0  164 12 0  166 12 0  168 12 0  170 12 0  172 12 0  174 12 0  176 12 0  178 12 0  180 12 0  182 12 0  184 12 0  186 12 0  188 12 0  190 12 0  192 12 0  194 12 0  196 12 0  198 12 0  200 12 0  0 14 0  2 14 0  4 14 0  6 14 0  8 14 0  10 14 0  12 14 0  14 14 0  16 14 0  18 14 0  20 14 0  22 14 0  24 14 0  26 14 0  28 14 0  30 14 0  32 14 0  34 14 0  36 14 0  38 14 0  40 14 0  42 14 0  44 14 0  46 14 0  48 14 0  50 14 0  52 14 0  54 14 0  56 14 0  58 14 0  60 14 0  62 14 0  64 14 0  66 14 0  68 14 0  70 14 0  72 14 0  74 14 0  76 14 0  78 14 0  80 14 0  82 14 0  84 14 0  86 14 0  88 14 0  90 14 0  92 14 0  94 14 0  96 14 0  98 14 0  100 14 0  102 14 0  104 14 0  106 14 0  108 14 0  110 14 0  112 14 0  114 14 0  116 14 0  118 14 0  120 14 0  122 14 0  124 14 0  126 14 0  128 14 0  130 14 0  132 14 0  134 14 0  136 14 0  138 14 0  140 14 0  142 14 0  144 14 0  146 14 0  148 14 0  150 14 0  152 14 0  154 14 0  156 14 0  158 14 0  160 14 0  162 14 0  164 14 0  166 14 0  168 14 0  170 14 0  172 14 0  174 14 0  176 14 0  178 14 0  180 14 0  182 14 0  184 14 0  186 14 0  188 14 0  190 14 0  192 14 0  194 14 0  196 14 0  198 14 0  200 14 0  0 16 0  2 16 0  4 16 0  6 16 0  8 16 0  10 16 0  12 16 0  14 16 0  16 16 0  18 16 0  20 16 0  22 16 0  24 16 0  26 16 0  28 16 0  30 16 0  32 16 0  34 16 0  36 16 0  38 16 0  40 16 0  42 16 0  44 16 0  46 16 0  48 16 0  50 16 0  52 16 0  54 16 0  56 16 0  58 16 0  60 16 0  62 16 0  64 16 0  66 16 0  68 16 0  70 16 0  72 16 0  74 16 0  76 16 0  78 16 0  80 16 0  82 16 0  84 16 0  86 16 0  88 16 0  90 16 0  92 16 0  94 16 0  96 16 0  98 16 0  100 16 0  102 16 0  104 16 0  106 16 0  108 16 0  110 16 0  112 16 0  114 16 0  116 16 0  118 16 0  120 16 0  122 16 0  124 16 0  126 16 0  128 16 0  130 16 0  132 16 0  134 16 0  136 16 0  138 16 0  140 16 0  142 16 0  144 16 0  146 16 0  148 16 0  150 16 0  152 16 0  154 16 0  156 16 0  158 16 0  160 16 0  162 16 0  164 16 0  166 16 0  168 16 0  170 16 0  172 16 0  174 16 0  176 16 0  178 16 0  180 16 0  182 16 0  184 16 0  186 16 0  188 16 0  190 16 0  192 16 0  194 16 0  196 16 0  198 16 0  200 16 0  0 18 0  2 18 0  4 18 0  6 18 0  8 18 0  10 18 0  12 18 0  14 18 0  16 18 0  18 18 0  20 18 0  22 18 0  24 18 0  26 18 0  28 18 0  30 18 0  32 18 0  34 18 0  36 18 0  38 18 0  40 18 0  42 18 0  44 18 0  46 18 0  48 18 0  50 18 0  52 18 0  54 18 0  56 18 0  58 18 0  60 18 0  62 18 0  64 18 0  66 18 0  68 18 0  70 18 0  72 18 0  74 18 0  76 18 0  78 18 0  80 18 0  82 18 0  84 18 0  86 18 0  88 18 0  90 18 0  92 18 0  94 18 0  96 18 0  98 18 0  100 18 0  102 18 0  104 18 0  106 18 0  108 18 0  110 18 0  112 18 0  114 18 0  116 18 0  118 18 0  120 18 0  122 18 0  124 18 0  126 18 0  128 18 0  130 18 0  132 18 0  134 18 0  136 18 0  138 18 0  140 18 0  142 18 0  144 18 0  146 18 0  148 18 0  150 18 0  152 18 0  154 18 0  156 18 0  158 18 0  160 18 0  162 18 0  164 18 0  166 18 0  168 18 0  170 18 0  172 18 0  174 18 0  176 18 0  178 18 0  180 18 0  182 18 0  184 18 0  186 18 0  188 18 0  190 18 0  192 18 0  194 18 0  196 18 0  198 18 0  200 18 0  0 20 0  2 20 0  4 20 0  6 20 0  8 20 0  10 20 0  12 20 0  14 20 0  16 20 0  18 20 0  20 20 0  22 20 0  24 20 0  26 20 0  28 20 0  30 20 0  32 20 0  34 20 0  36 20 0  38 20 0  40 20 0  42 20 0  44 20 0  46 20 0  48 20 0  50 20 0  52 20 0  54 20 0  56 20 0  58 20 0  60 20 0  62 20 0  64 20 0  66 20 0  68 20 0  70 20 0  72 20 0  74 20 0  76 20 0  78 20 0  80 20 0  82 20 0  84 20 0  86 20 0  88 20 0  90 20 0  92 20 0  94 20 0  96 20 0  98 20 0  100 20 0  102 20 0  104 20 0  106 20 0  108 20 0  110 20 0  112 20 0  114 20 0  116 20 0  118 20 0  120 20 0  122 20 0  124 20 0  126 20 0  128 20 0  130 20 0  132 20 0  134 20 0  136 20 0  138 20 0  140 20 0  142 20 0  144 20 0  146 20 0  148 20 0  150 20 0  152 20 0  154 20 0  156 20 0
[...]
<PointData  Scalars="C"> 
<DataArray  type="Float64"  Name="C"  format="ascii">-1.4042004415878648e-13  6.5284171159358156e-13  -4.1515795506245073e-12  2.0452070979651200e-11  -7.9791752620619299e-11  2.4129022796313980e-10  -5.5749155814913316e-10  1.0155466172750116e-09  -2.2410760525898006e-09  1.0069837307918919e-08  -4.7884590058676576e-08  1.7557819674423026e-07  -4.6011789571661132e-07  7.6667876601195540e-07  -2.1355649877332871e-07  -2.4675326729937145e-06  5.0551371260414914e-06  2.3958422642377024e-06  -1.5762968755372314e-05  -5.2842926169672208e-06  3.1716140979108615e-05  3.0027908346902767e-05  -2.5806726835653797e-05  -7.1336343858988954e-05  -7.2853928294800040e-05  -4.0197257374581298e-05  1.2127111944353101e-05  6.8010698049540203e-05  1.0758804868153833e-04  1.1726060042584045e-04  8.8313026764473226e-05  2.4895355925823128e-05  -5.2181184724956998e-05  -1.2581012336622784e-04  -1.7276668630121717e-04  -1.3507936844887810e-04  -1.2517255285607783e-05  8.5481246970253903e-05  6.7135091967669157e-05  -6.5718188159326126e-06  -2.5244033077282362e-05  -8.0491342194731360e-07  6.3384733147201380e-06  -2.0037603097960437e-07  -1.1940322315263722e-06  1.5032541528624789e-07  1.5830404260246169e-07  -4.1942156289399377e-08  -1.2152749398263181e-08  1.0194656021677637e-08  -4.4500788000998593e-09  1.3177412373680085e-09  2.2684451984108161e-10  -2.5377221058790704e-09  1.3118438022497396e-08  -5.9632712151705973e-08  2.1058155961251445e-07  -5.3311971372916965e-07  8.4214471779474831e-07  -8.9262735406556811e-08  -3.0308725344675022e-06  5.4754113244207053e-06  4.0719155488912642e-06  -1.8029107047487143e-05  -9.8549615404403050e-06  3.5210735167396594e-05  4.2729184396166661e-05  -1.8179571509676108e-05  -7.5871699704159365e-05  -8.5687873555863247e-05  -5.7464681457282927e-05  -2.8263137812022620e-06  6.1517784457290495e-05  1.1194343363745819e-04  1.3158267959401278e-04  1.0784393489981775e-04  4.2842467015513000e-05  -3.9980787867898431e-05  -1.2450907326507692e-04  -1.8756556294769787e-04  -1.5478336488397704e-04  -1.8656324646493633e-05  9.3509283665308665e-05  7.4022239085831323e-05  -7.9011045205987895e-06  -2.7547185791282067e-05  -5.0641366430937566e-07  6.7024653850393632e-06  -3.1317166995543491e-07  -1.2226902454076402e-06  1.7280893124254636e-07  1.5463958926147219e-07  -4.3934396198425153e-08  -1.1000631396632664e-08  1.0120490497870892e-08  -4.6910360820894027e-09  1.8573393950344033e-09  -9.1413706960996427e-10  3.5817763173782865e-10  -4.6238061675672724e-11  -3.5826894330186355e-11  -5.5931115976231838e-14  -6.9543300564465103e-14  1.6130435122625745e-12  -1.2460907548233834e-11  6.3383017925542399e-11  -2.3572323659886994e-10  6.1681054966080780e-10  -1.0397084959071315e-09  1.0716276096421785e-09  -3.0473504193959704e-09  2.9497250065338907e-08  -1.5079312804054904e-07  5.3179770596641099e-07  -1.1832595957271050e-06  1.3355007883412927e-06  1.9023140424036793e-06  -8.2511974005677016e-06  3.7020228940565582e-06  2.2208360782484086e-05  -1.4803130715288876e-05  -5.6625591904535064e-05  -4.0704570482513226e-06  1.0907327807954788e-04  1.5663572111357548e-04  1.2125693767267470e-04  3.8130456221490703e-05  -5.9594992462234125e-05  -1.3899974243327244e-04  -1.7175889641343888e-04  -1.4704431280177820e-04  -6.6643483908436819e-05  4.9579750707709857e-05  1.6748128218593651e-04  2.5161412086083463e-04  2.4913274235830840e-04  1.1382434592267772e-04  -7.5121664873484761e-05  -1.4549147530724550e-04  -5.4433919674679665e-05  4.6071716335588089e-05  3.7094992732423170e-05  -6.6128453129174092e-06  -8.2705230819135047e-06  2.0237000720664985e-06  1.1508924972593935e-06  -5.0899805301814064e-07  -7.6170888496386339e-08  7.5589326668388611e-08  -2.1981643214017786e-10  -1.3619919191449328e-08  8.0490527849549529e-09  -2.4965643375054758e-09  5.5691726636650846e-11  1.5810204770049418e-09  -8.1154064418527523e-09  5.1341154757962601e-08  -2.1942549194468084e-07  6.9487655128859288e-07  -1.3737277291771347e-06  1.1156909516505233e-06  3.4129932990885244e-06  -9.8375498754082148e-06  -3.7791579265610121e-07  3.0709268435944575e-05  -3.5294609773684272e-06  -7.4635868258432362e-05  -4.3319933277555135e-05  9.3304204130787401e-05  1.7904735939439635e-04  1.6331052932171331e-04  8.4935117802765927e-05  -2.4241250991668700e-05  -1.2730758329959014e-04  -1.8737207179441248e-04  -1.8735900687259001e-04  -1.2173735503372834e-04  -4.4744003833405218e-06  1.2828568619102073e-04  2.4506582953760407e-04  2.8997565804789259e-04  1.7264972492466756e-04  -5.2341851597696833e-05  -1.6624459336095208e-04  -7.5545423462441500e-05  4.8400501742092614e-05  4.4282649790835350e-05  -6.7132224489058726e-06  -9.5617923946543599e-06  2.0680471197688347e-06  1.2670021759515761e-06  -5.3913914862771375e-07  -7.8537767771100917e-08  7.8647990145111362e-08  -1.5904281427888992e-09  -1.3444407264890728e-08  8.2836623193127084e-09  -3.0920009581629318e-09  1.2996036554728334e-09  -5.8751690878884384e-10  1.5454831771704963e-10  -4.3144912333812081e-11  1.1234294306891195e-14  4.4660859829994614e-13  -4.6195188462652555e-12  2.9179310436077785e-11  -1.4914533768502054e-10  5.8491032438230722e-10  -1.6827048160149093e-09  3.4016567515897140e-09  -3.7706576318930383e-09  9.1885673936471005e-09  -5.9503791581664934e-08  3.7744965802870156e-07  -1.3182198604004928e-06  3.5231171422753623e-06  -4.5818246279914262e-06  -2.8448310551482680e-06  2.3705048699849811e-05  -2.2699521356343230e-05  -5.7247388683130490e-05  8.7062515243611761e-05  1.8608449082312793e-04  -8.3741238175626784e-06  -3.2265423108122047e-04  -4.0176590510234312e-04  -2.8881760230815807e-04  -8.1465344786169606e-05  1.4526869569054745e-04  3.0325621168273288e-04  3.2966762202164520e-04  2.2035623425704137e-04  7.9869389337080181e-06  -2.4726060517482639e-04  -4.7539659439630854e-04  -6.0222549747288858e-04  -5.1355605985072710e-04  -1.4098754012234759e-04  2.7705800496168791e-04  3.2307246347877520e-04  3.6909812602515138e-05  -1.5407418164986936e-04  -6.0844872148872567e-05  4.4556809845309057e-05  2.0717638601895883e-05  -8.0373452586815885e-06  -1.8165565316627887e-06  1.5752365857537710e-06  -1.3653950741032141e-07  -1.2796576962746767e-07  2.7232700851624736e-08  2.2322002733668860e-08  -1.9585255967799962e-08  6.8544758426743082e-09  2.5175451200392544e-10  -3.3816950676059252e-09  1.7740729726792712e-08  -1.0280464361714555e-07  5.5192087137185865e-07  -1.7745958728589488e-06  4.3442208533233336e-06  -4.6026037509493131e-06  -6.6196956671956578e-06  3.1101545639218852e-05  -1.8260542751944582e-05  -8.6511049925259374e-05  8.0237643143480392e-05  2.4919850904244064e-04  4.8907958446178520e-05  -3.3070629851906255e-04  -4.4905545172493981e-04  -3.2671215596306017e-04  -1.0385727532863114e-04  1.3325958326968637e-04  2.9402289126301273e-04  3.2265676970055519e-04  2.2581729682077047e-04  3.9982606920654024e-05  -1.9178528269964487e-04  -4.1898279977903600e-04  -5.8684334017268828e-04  -5.8073980436335157e-04  -2.5161283208310149e-04  2.3932381963298336e-04  3.7897892698355055e-04  8.3815321863952574e-05  -1.6715013850115070e-04  -7.8721780580672427e-05  4.8378917310788740e-05  2.4455147703506309e-05  -8.8487496048148868e-06  -2.2597163457909645e-06  1.6838342062547821e-06  -1.3315165901043709e-07  -1.3804619495408029e-07  3.0899021821145252e-08  2.1780000406537950e-08  -2.0222670297005240e-08  8.3919880817197480e-09  -3.2461778428402437e-09  1.5213026592608653e-09  -5.3221472039079155e-10  2.9751384431727253e-10  -7.2133339686885346e-13  1.0208580045987681e-13  6.6617412975114996e-12  -5.4157470784454760e-11  3.0409529447686885e-10  -1.2891453526262846e-09  4.2598210803811253e-09  -8.5526837370163115e-09  1.2295191013590314e-08  -7.6352165551815596e-10  1.2711300205066876e-07  -7.2530935847601698e-07  3.6334723756423181e-06  -9.9860321459704903e-06  1.7227786077577057e-05  -1.9199027425661861e-06  -6.8902599495463443e-05  1.2193231284189534e-04  1.8724536697499263e-04  -2.5771890650003963e-04  -3.3919369418001171e-04  4.1120151325544513e-04  1.4705723101966308e-03  2.0935734239299507e-03  2.7166518161505933e-03  3.4411262554498905e-03  4.1289390503602141e-03  4.5377267487030264e-03  4.5181186056265886e-03  4.0855851047631158e-03  3.4241451238257998e-03  2.7782669433133369e-03  2.2000581359058087e-03  1.5998695909117955e-03  8.5289728387636580e-04  -4.0169824152064093e-05  -7.9724690865053409e-04  -6.3053496248536612e-04  1.0337632623110029e-04  3.7793442325660106e-04  3.4280719305312230e-05  -1.3921849213290236e-04  -1.4038964547275232e-05  3.4640812954377997e-05  1.4368786519119313e-06  -4.3158257977328509e-06  1.1944591531059413e-06  8.4589403039811789e-08  -8.2361082760642150e-08  -1.9676925735447640e-08  4.1168005457890765e-08  -1.7732010904661144e-08  5.1279052497075700e-10  8.4095582747586386e-09  -5.8436721384404295e-09  1.9991269593897872e-07  -1.0292217442861960e-06  4.6828067101692036e-06  -1.2174695430408384e-05  1.9170555256711884e-05  2.8125532992429876e-06  -8.6174388737539858e-05  1.3269143727509620e-04  2.2935852644408251e-04  -2.7882434686705927e-04  -3.6884420734705923e-04  4.5930625155620879e-04  1.4961903501671682e-03  2.1078308214165123e-03  2.7266657703127499e-03  3.4495165161684033e-03  4.1349922814717319e-03  4.5406266741584060e-03  4.5177610479466834e-03  4.0808032295575839e-03  3.4148610117442466e-03  2.7627416961320010e-03  2.1690492631357139e-03  1.5409705911634019e-03  8.2199162477205516e-04  5.6323052395800388e-05  -7.3341939304211157e-04  -7.0848810185514016e-04  3.1213028966779795e-05  4.1291420018866367e-04  6.6435747956398582e-05  -1.5177125911945141e-04  -1.9440157060384301e-05  3.7895376270940575e-05  1.8611992116330204e-06  -4.7771336594388577e-06  1.2063786655075803e-06  9.9792348787722181e-08  -9.0041114236082544e-08  -1.8444504735179532e-08  4.2673619747601215e-08  -2.1446726122179323e-08  8.2341884463928796e-09  -3.7256890069042010e-09  1.4359937252525164e-09  -9.4122046699734328e-10  3.4176043323030185e-12  -4.6038868715470778e-12  -8.9784734465484354e-13  8.1647061306664637e-11  -5.5736898290684152e-10  2.8567972374194612e-09  -9.2405885911451352e-09  2.5560292712553112e-08  -1.6246744809416023e-08  2.2468824403708206e-08  1.6827815475013593e-08  1.7393635962481202e-06  -8.3826380082473826e-06  2.8594437915984966e-05  -6.1612845106726196e-05  5.6660882391439338e-05  2.3599366284305764e-04  -2.9974779689463633e-04  -5.0474882708434318e-06  1.6860074103613456e-03  2.7505897599750975e-03  5.0996129238498489e-03  8.8484164419988104e-03  1.4982384617381586e-02  2.4012825625179007e-02  3.5741387025964494e-02  4.8241323927365132e-02  5.6852732450731115e-02  5.6995507383381161e-02  4.8596479595183525e-02  3.6165237099737298e-02  2.4398269190323705e-02  1.5256890882267620e-02  8.9268347495068054e-03  4.9356052071691378e-03  2.7651320331371037e-03  2.1830420925834093e-03  7.8721911263883503e-04  -6.4765725731899114e-04  -7.9426343608612448e-04  1.4104346118449401e-04  2.9601086885825968e-04  -6.3812339790464339e-05  -7.0510926074987190e-05  2.2614360348263036e-05  1.1037271683266953e-05  -4.4914881802467297e-06  6.7735340634167343e-07  1.4493917559532300e-07  -2.1913905883631553e-08  -6.3616719467477265e-08  3.9571859978920156e-08  2.5554610002159215e-09  1.9577390506040867e-09  1.0360278552429580e-08  -6.7676820589018144e-09  2.1092945482386731e-06  -9.8058052768500190e-06  3.2272619474135717e-05  -6.7336023624247748e-05  6.1062004665504995e-05  2.4987742670245345e-04  -3.1962076504249843e-04  4.0713511313256696e-05  1.7285364440559946e-03  2.7677914862110149e-03  5.1473361953113658e-03  8.9693291437210002e-03  1.5194760229065711e-02  2.4308188541708211e-02  3.6093683475791172e-02  4.8553409666697876e-02  5.6975592651380871e-02  5.6854030287552905e-02  4.8268611403921503e-02  3.5800956725541816e-02  2.4092566567364204e-02  1.5034799788655961e-02  8.7994826682144672e-03  4.8874625787909635e-03  2.7425033388364401e-03  2.0956985743849680e-03  7.8437883393590608e-04  -5.6543485780397842e-04  -8.3385904846854379e-04  9.9265329232518383e-05  3.2153374963807659e-04  -5.7814770710649020e-05  -7.6313351749372386e-05  2.3265185903387602e-05  1.1686686993668597e-05  -4.6879024696978196e-06  6.6359686132371538e-07  1.4573535154894498e-07  -2.0238986259235971e-08  -6.7576929038890463e-08  4.6802341144027117e-08  -1.8871558680887114e-08  8.2836659032196129e-09  -3.1971913035497056e-09  2.2188561935041233e-09  -1.0294701445888777e-11  2.0515302992356867e-11  -4.6462846496248870e-11  -7.9202132264340190e-12  9.2422514747703195e-10  -4.7823529585367234e-09  2.3628441723741190e-08  -4.3568402489298236e-08  9.9100147669233000e-08  2.5349567276779096e-07  -1.2387603506232859e-07  -1.9735928904496685e-06  1.8274152667224048e-05  -7.1121827773509703e-05  2.4329252337278729e-04  -1.0446784787167794e-04  1.7076737008033220e-05  2.2261774700743217e-03  4.6589631424237598e-03  1.0617834297323707e-02  2.8032637147917098e-02  7.0265806926622820e-02  1.3789395057418385e-01  2.1550045149112645e-01  2.9387085858935252e-01  3.7150581367170077e-01  4.3926441965176544e-01  4.7989583080577303e-01  4.8050010872981258e-01  4.4088278029703881e-01  3.7365307201234221e-01  2.9611365274896440e-01  2.1772569437063219e-01  1.4003298912981874e-01  7.1920748194533757e-02  2.8947315282693717e-02  1.0897757131006245e-02  4.5503771799241246e-03  2.7041390483976057e-03  1.0611113792951756e-03  -8.1299785852652264e-04  -5.2404233385035628e-04  2.8151792945572171e-04  6.9645478312813254e-05  -7.6433553326915989e-05  1.6107548713428815e-06  1.5147042255453635e-05  -3.5110866134410316e-06  3.3276634399495661e-07  1.4459595912192509e-07  6.1283752293468059e-08  -6.3888444622154890e-08  8.4221318466452424e-09  4.9809314026585638e-08  3.5498583104794540e-07  -2.8912923114667435e-07  -1.7974504523192516e-06  1.8481627712660393e-05  -7.1626336203447103e-05  2.4934059717862856e-04  -1.2219694554684005e-04  7.5419975282477707e-05  2.2722204990701070e-03  4.7395446455677148e-03  1.0886874298042764e-02  2.8834540614316662e-02  7.1886099503441978e-02  1.4003625560630589e-01  2.1772094505752651e-01  2.9607966990824058e-01  3.7359165718573029e-01  4.4081365562741476e-01  4.8044323314906934e-01  4.7985942975338841e-01  4.3924458939433086e-01  3.7148870245947496e-01  2.9384076285585126e-01  2.1545469813706861e-01  1.3785229164791957e-01  7.0276107399491083e-02  2.8132359924793762e-02  1.0618359003733929e-02  4.4748140986017445e-03  2.6376528349290763e-03  1.0205249824978874e-03  -7.6231370945410595e-04  -5.5140814603196254e-04  2.7585767182307423e-04  7.8238760611755497e-05  -7.7720254430300282e-05  1.1810452280554889e-06  1.5336139872507582e-05  -3.5356817466619397e-06  3.6155966516539612e-07  1.1928433489569985e-07  7.6280844690607968e-08  -8.1541154176672946e-08  3.6879158614964481e-08  -1.6027424596831430e-08  5.9033316952352203e-09  -3.9843312936757270e-09  1.6470355057372718e-11  -5.3011367144642890e-11  2.2051404421907633e-10  -4.1878845182522684e-10  2.1141712752214360e-10  9.4483021121865343e-09  -2.8552646862485032e-08  1.5139440662388429e-07  4.5677554323878152e-08  -4.4531136280540856e-07  2.9686012539098807e-06  -7.3248392024833829e-07  -1.5223585482250943e-05  2.6799767029693500e-04  -2.6625165639701461e-04  1.7031200334351217e-03  5.2451319352307011e-03  1.4935438228452462e-02  5.0198070825425253e-02  1.4243890640662146e-01  3.0631603243105077e-01  5.2010951754666235e-01  7.0172065715517562e-01  8.0883154387688305e-01  8.6803310802929667e-01  9.0510529633864556e-01  9.2868607628897282e-01  9.4034767990858337e-01  9.4050893263304203e-01  9.2917814720148872e-01  9.0594702996991650e-01  8.6932024400133312e-01  8.1100448566650041e-01  7.0574566872847955e-01  5.2613836871122588e-01  3.1194444486082945e-01  1.4607325709142691e-01  5.1966426104399409e-02  1.5514910418607589e-02  5.3008162262157587e-03  2.5403922368535717e-03  2.5911126028615528e-04  -8.5652074193091920e-04  4.6394040465258717e-05  1.3830461458184869e-04  -4.9124360277717225e-05  -1.2509384150621500e-05  1.4888366772666262e-05  -2.5439417207533397e-06  9.4247155649951876e-08  2.0687146684170917e-08  9.4422580040245801e-08  5.2416783948233498e-08  1.7128262492151793e-07  -7.3438098108576182e-07  3.8002255604004416e-06  -2.7815169851446229e-06  -8.9339556388011015e-06  2.5554469963221047e-04  -2.4262533543754328e-04  1.7776099998611582e-03  5.3648238722342019e-03  1.5446029060241551e-02  5.1934470461670192e-02  1.4610700858012921e-01  3.1196253663499135e-01  5.2613685979912317e-01  7.0574792220847304e-01  8.1100360258585769e-01  8.6930927683851134e-01  9.0592941592870102e-01  9.2916063209749911e-01  9.4049548788136128e-01  9.4033842706013071e-01  9.2867824477858851e-01  9.0509322296390970e-01  8.6800842226224240e-01  8.0878520705000290e-01  7.0164807526822259e-01  5.2002007270151063e-01  3.0622224356412681e-01  1.4236265158174968e-01  5.0212377237476805e-02  1.4994201385085811e-02  5.1844164469266431e-03  2.4676787047260185e-03  2.4384631332125385e-04  -8.4037633027102558e-04  3.3636401603477322e-05  1.3981838440337490e-04  -4.7904828832907317e-05  -1.2793582840160957e-05  1.4660551099794941e-05  -2.5152421889185300e-06  1.8600879072923434e-07  -3.3660992472470912e-08  1.1610148434057050e-07  -5.4965241922507835e-08  2.5043751291030954e-08  -8.4320088281294167e-09  5.0917271903576541e-09  7.7802292464984243e-12  6.5274704688195451e-11  -4.8617391443551443e-10  2.2967140306819186e-09  -3.2879630726125570e-09  9.0518809893628981e-09  7.6423849663606922e-08  -2.6247927885482067e-08  1.3722427018784961e-07  3.5543415565340216e-06  -1.1632838693231902e-05  5.2199045582199967e-05  1.4683117690773495e-04  2.0955627196205291e-04  4.0481688809892325e-03  1.2396690824411933e-02  4.8990222102134079e-02  1.7136743239371829e-01  4.1417863118249632e-01  6.8758984036589921e-01  8.6056472653652649e-01  9.4418628733657051e-01  9.7949043455942475e-01  9.9251618489591620e-01  9.9739712415389314e-01  9.9952715148882909e-01  1.0005597918019939e+00  1.0009994062427561e+00  1.0010029543276466e+00  1.0005731314689899e+00  9.9955985995825503e-01  9.9747523737310961e-01  9.9272207390290379e-01  9.8007302159231968e-01  9.4570217879955398e-01  8.6392877602624252e-01  6.9412383002086719e-01  4.2248800614314963e-01  1.7677580805544735e-01  5.1143362720516568e-02  1.2914665689630067e-02  4.3038100343978777e-03  1.5451413477293729e-03  -8.0069068041926548e-04  -1.6093719538700456e-04  1.2991045601957489e-04  -1.8576047401205482e-05  -1.8010478422061254e-05  1.2953930870250497e-05  -1.6300735999060245e-06  1.7126938256677479e-07  -5.6097387877044817e-08  1.1881255837246846e-07  -1.2236310849019408e-07  4.3743621660870227e-06  -1.4089874950789924e-05  6.0695524196720360e-05  1.2694031332735232e-04  2.6616669605380999e-04  4.1762361085271576e-03  1.2904369393323553e-02  5.1125434276614028e-02  1.7686376503812176e-01  4.2258598216650523e-01  6.9417870996246822e-01  8.6394235931344321e-01  9.4570100735422868e-01  9.8007310354510391e-01  9.9272704712899906e-01  9.9748274841902484e-01  9.9956717115718019e-01  1.0005785072767017e+00  1.0010051031776606e+00  1.0009976610680018e+00  1.0005544032727749e+00  9.9951901935697773e-01  9.9738758280470741e-01  9.9250701040991096e-01  9.7948068959846879e-01  9.4416524156239490e-01  8.6050695156995227e-01  6.8745801578020393e-01  4.1399241657348584e-01  1.7122838301557652e-01  4.8991598629169637e-02  1.2401198131974930e-02  4.1819495659627731e-03  1.4780758400526166e-03  -7.7773313821327412e-04  -1.6754417817864336e-04  1.2626696178297817e-04  -1.7011323170560201e-05  -1.7944442830456643e-05  1.2400093919267396e-05  -1.5982923503422731e-06  2.9172199957457476e-07  -1.2767955339578981e-07  5.4021121572799625e-08  -2.4028794269112416e-08  6.6855572480514757e-09  -2.8111231038139134e-09  -1.4438659145800591e-10  1.5860448268362121e-10  5.2191954273460680e-10  -3.5560774451749637e-09  2.4396393573390101e-08  -2.5160986279199627e-08  1.7534145632198382e-07  1.0716941373732842e-07  2.3153905248570222e-06  -1.05872820770434