<?xml version="1.0"?>
<VTKFile type="UnstructuredGrid"  version="0.1"  >
<UnstructuredGrid>
<Piece  NumberOfPoints="11156" NumberOfCells="22000">
<Points>
<DataArray  type="Float64"  NumberOfComponents="3"  format="ascii">0 0 0  2 0 0  4 0 0  6 0 0  8 0 0  10 0 0  12 0 0  14 0 0  16 0 0  18 0 0  20 0 0  22 0 0  24 0 0  26 0 0  28 0 0  30 0 0  32 0 0  34 0 0  36 0 0  38 0 0  40 0 0  42 0 0  44 0 0  46 0 0  48 0 0  50 0 0  52 0 0  54 0 0  56 0 0  58 0 0  60 0 0  62 0 0  64 0 0  66 0 0  68 0 0  70 0 0  72 0 0  74 0 0  76 0 0  78 0 0  80 0 0  82 0 0  84 0 0  86 0 0  88 0 0  90 0 0  92 0 0  94 0 0  96 0 0  98 0 0  100 0 0  102 0 0  104 0 0  106 0 0  108 0 0  110 0 0  112 0 0  114 0 0  116 0 0  118 0 0  120 0 0  122 0 0  124 0 0  126 0 0  128 0 0  130 0 0  132 0 0  134 0 0  136 0 0  138 0 0  140 0 0  142 0 0  144 0 0  146 0 0  148 0 0  150 0 0  152 0 0  154 0 0  156 0 0  158 0 0  160 0 0  162 0 0  164 0 0  166 0 0  168 0 0  170 0 0  172 0 0  174 0 0  176 0 0  178 0 0  180 0 0  182 0 0  184 0 0  186 0 0  188 0 0  190 0 0  192 0 0  194 0 0  196 0 0  198 0 0  200 0 0  0 2 0  2 2 0  4 2 0  6 2 0  8 2 0  10 2 0  12 2 0  14 2 0  16 2 0  18 2 0  20 2 0  22 2 0  24 2 0  26 2 0  28 2 0  30 2 0  32 2 0  34 2 0  36 2 0  38 2 0  40 2 0  42 2 0  44 2 0  46 2 0  48 2 0  50 2 0  52 2 0  54 2 0  56 2 0  58 2 0  60 2 0  62 2 0  64 2 0  66 2 0  68 2 0  70 2 0  72 2 0  74 2 0  76 2 0  78 2 0  80 2 0  82 2 0  84 2 0  86 2 0  88 2 0  90 2 0  92 2 0  94 2 0  96 2 0  98 2 0  100 2 0  102 2 0  104 2 0  106 2 0  108 2 0  110 2 0  112 2 0  114 2 0  116 2 0  118 2 0  120 2 0  122 2 0  124 2 0  126 2 0  128 2 0  130 2 0  132 2 0  134 2 0  136 2 0  138 2 0  140 2 0  142 2 0  144 2 0  146 2 0  148 2 0  150 2 0  152 2 0  154 2 0  156 2 0  158 2 0  160 2 0  162 2 0  164 2 0  166 2 0  168 2 0  170 2 0  172 2 0  174 2 0  176 2 0  178 2 0  180 2 0  182 2 0  184 2 0  186 2 0  188 2 0  190 2 0  192 2 0  194 2 0  196 2 0  198 2 0  200 2 0  0 4 0  2 4 0  4 4 0  6 4 0  8 4 0  10 4 0  12 4 0  14 4 0  16 4 0  18 4 0  20 4 0  22 4 0  24 4 0  26 4 0  28 4 0  30 4 0  32 4 0  34 4 0  36 4 0  38 4 0  40 4 0  42 4 0  44 4 0  46 4 0  48 4 0  50 4 0  52 4 0  54 4 0  56 4 0  58 4 0  60 4 0  62 4 0  64 4 0  66 4 0  68 4 0  70 4 0  72 4 0  74 4 0  76 4 0  78 4 0  80 4 0  82 4 0  84 4 0  86 4 0  88 4 0  90 4 0  92 4 0  94 4 0  96 4 0  98 4 0  100 4 0  102 4 0  104 4 0  106 4 0  108 4 0  110 4 0  112 4 0  114 4 0  116 4 0  118 4 0  120 4 0  122 4 0  124 4 0  126 4 0  128 4 0  130 4 0  132 4 0  134 4 0  136 4 0  138 4 0  140 4 0  142 4 0  144 4 0  146 4 0  148 4 0  150 4 0  152 4 0  154 4 0  156 4 0  158 4 0  160 4 0  162 4 0  164 4 0  166 4 0  168 4 0  170 4 0  172 4 0  174 4 0  176 4 0  178 4 0  180 4 0  182 4 0  184 4 0  186 4 0  188 4 0  190 4 0  192 4 0  194 4 0  196 4 0  198 4 0  200 4 0  0 6 0  2 6 0  4 6 0  6 6 0  8 6 0  10 6 0  12 6 0  14 6 0  16 6 0  18 6 0  20 6 0  22 6 0  24 6 0  26 6 0  28 6 0  30 6 0  32 6 0  34 6 0  36 6 0  38 6 0  40 6 0  42 6 0  44 6 0  46 6 0  48 6 0  50 6 0  52 6 0  54 6 0  56 6 0  58 6 0  60 6 0  62 6 0  64 6 0  66 6 0  68 6 0  70 6 0  72 6 0  74 6 0  76 6 0  78 6 0  80 6 0  82 6 0  84 6 0  86 6 0  88 6 0  90 6 0  92 6 0  94 6 0  96 6 0  98 6 0  100 6 0  102 6 0  104 6 0  106 6 0  108 6 0  110 6 0  112 6 0  114 6 0  116 6 0  118 6 0  120 6 0  122 6 0  124 6 0  126 6 0  128 6 0  130 6 0  132 6 0  134 6 0  136 6 0  138 6 0  140 6 0  142 6 0  144 6 0  146 6 0  148 6 0  150 6 0  152 6 0  154 6 0  156 6 0  158 6 0  160 6 0  162 6 0  164 6 0  166 6 0  168 6 0  170 6 0  172 6 0  174 6 0  176 6 0  178 6 0  180 6 0  182 6 0  184 6 0  186 6 0  188 6 0  190 6 0  192 6 0  194 6 0  196 6 0  198 6 0  200 6 0  0 8 0  2 8 0  4 8 0  6 8 0  8 8 0  10 8 0  12 8 0  14 8 0  16 8 0  18 8 0  20 8 0  22 8 0  24 8 0  26 8 0  28 8 0  30 8 0  32 8 0  34 8 0  36 8 0  38 8 0  40 8 0  42 8 0  44 8 0  46 8 0  48 8 0  50 8 0  52 8 0  54 8 0  56 8 0  58 8 0  60 8 0  62 8 0  64 8 0  66 8 0  68 8 0  70 8 0  72 8 0  74 8 0  76 8 0  78 8 0  80 8 0  82 8 0  84 8 0  86 8 0  88 8 0  90 8 0  92 8 0  94 8 0  96 8 0  98 8 0  100 8 0  102 8 0  104 8 0  106 8 0  108 8 0  110 8 0  112 8 0  114 8 0  116 8 0  118 8 0  120 8 0  122 8 0  124 8 0  126 8 0  128 8 0  130 8 0  132 8 0  134 8 0  136 8 0  138 8 0  140 8 0  142 8 0  144 8 0  146 8 0  148 8 0  150 8 0  152 8 0  154 8 0  156 8 0  158 8 0  160 8 0  162 8 0  164 8 0  166 8 0  168 8 0  170 8 0  172 8 0  174 8 0  176 8 0  178 8 0  180 8 0  182 8 0  184 8 0  186 8 0  188 8 0  190 8 0  192 8 0  194 8 0  196 8 0  198 8 0  200 8 0  0 10 0  2 10 0  4 10 0  6 10 0  8 10 0  10 10 0  12 10 0  14 10 0  16 10 0  18 10 0  20 10 0  22 10 0  24 10 0  26 10 0  28 10 0  30 10 0  32 10 0  34 10 0  36 10 0  38 10 0  40 10 0  42 10 0  44 10 0  46 10 0  48 10 0  50 10 0  52 10 0  54 10 0  56 10 0  58 10 0  60 10 0  62 10 0  64 10 0  66 10 0  68 10 0  70 10 0  72 10 0  74 10 0  76 10 0  78 10 0  80 10 0  82 10 0  84 10 0  86 10 0  88 10 0  90 10 0  92 10 0  94 10 0  96 10 0  98 10 0  100 10 0  102 10 0  104 10 0  106 10 0  108 10 0  110 10 0  112 10 0  114 10 0  116 10 0  118 10 0  120 10 0  122 10 0  124 10 0  126 10 0  128 10 0  130 10 0  132 10 0  134 10 0  136 10 0  138 10 0  140 10 0  142 10 0  144 10 0  146 10 0  148 10 0  150 10 0  152 10 0  154 10 0  156 10 0  158 10 0  160 10 0  162 10 0  164 10 0  166 10 0  168 10 0  170 10 0  172 10 0  174 10 0  176 10 0  178 10 0  180 10 0  182 10 0  184 10 0  186 10 0  188 10 0  190 10 0  192 10 0  194 10 0  196 10 0  198 10 0  200 10 0  0 12 0  2 12 0  4 12 0  6 12 0  8 12 0  10 12 0  12 12 0  14 12 0  16 12 0  18 12 0  20 12 0  22 12 0  24 12 0  26 12 0  28 12 0  30 12 0  32 12 0  34 12 0  36 12 0  38 12 0  40 12 0  42 12 0  44 12 0  46 12 0  48 12 0  50 12 0  52 12 0  54 12 0  56 12 0  58 12 0  60 12 0  62 12 0  64 12 0  66 12 0  68 12 0  70 12 0  72 12 0  74 12 0  76 12 0  78 12 0  80 12 0  82 12 0  84 12 0  86 12 0  88 12 0  90 12 0  92 12 0  94 12 0  96 12 0  98 12 0  100 12 0  102 12 0  104 12 0  106 12 0  108 12 0  110 12 0  112 12 0  114 12 0  116 12 0  118 12 0  120 12 0  122 12 0  124 12 0  126 12 0  128 12 0  130 12 0  132 12 0  134 12 0  136 12 0  138 12 0  140 12 0  142 12 0  144 12 0  146 12 0  148 12 0  150 12 0  152 12 0  154 12 0  156 12 0  158 12 0  160 12 0  162 12 0  164 12 0  166 12 0  168 12 0  170 12 0  172 12 0  174 12 0  176 12 0  178 12 0  180 12 0  182 12 0  184 12 0  186 12 0  188 12 0  190 12 0  192 12 0  194 12 0  196 12 0  198 12 0  200 12 0  0 14 0  2 14 0  4 14 0  6 14 0  8 14 0  10 14 0  12 14 0  14 14 0  16 14 0  18 14 0  20 14 0  22 14 0  24 14 0  26 14 0  28 14 0  30 14 0  32 14 0  34 14 0  36 14 0  38 14 0  40 14 0  42 14 0  44 14 0  46 14 0  48 14 0  50 14 0  52 14 0  54 14 0  56 14 0  58 14 0  60 14 0  62 14 0  64 14 0  66 14 0  68 14 0  70 14 0  72 14 0  74 14 0  76 14 0  78 14 0  80 14 0  82 14 0  84 14 0  86 14 0  88 14 0  90 14 0  92 14 0  94 14 0  96 14 0  98 14 0  100 14 0  102 14 0  104 14 0  106 14 0  108 14 0  110 14 0  112 14 0  114 14 0  116 14 0  118 14 0  120 14 0  122 14 0  124 14 0  126 14 0  128 14 0  130 14 0  132 14 0  134 14 0  136 14 0  138 14 0  140 14 0  142 14 0  144 14 0  146 14 0  148 14 0  150 14 0  152 14 0  154 14 0  156 14 0  158 14 0  160 14 0  162 14 0  164 14 0  166 14 0  168 14 0  170 14 0  172 14 0  174 14 0  176 14 0  178 14 0  180 14 0  182 14 0  184 14 0  186 14 0  188 14 0  190 14 0  192 14 0  194 14 0  196 14 0  198 14 0  200 14 0  0 16 0  2 16 0  4 16 0  6 16 0  8 16 0  10 16 0  12 16 0  14 16 0  16 16 0  18 16 0  20 16 0  22 16 0  24 16 0  26 16 0  28 16 0  30 16 0  32 16 0  34 16 0  36 16 0  38 16 0  40 16 0  42 16 0  44 16 0  46 16 0  48 16 0  50 16 0  52 16 0  54 16 0  56 16 0  58 16 0  60 16 0  62 16 0  64 16 0  66 16 0  68 16 0  70 16 0  72 16 0  74 16 0  76 16 0  78 16 0  80 16 0  82 16 0  84 16 0  86 16 0  88 16 0  90 16 0  92 16 0  94 16 0  96 16 0  98 16 0  100 16 0  102 16 0  104 16 0  106 16 0  108 16 0  110 16 0  112 16 0  114 16 0  116 16 0  118 16 0  120 16 0  122 16 0  124 16 0  126 16 0  128 16 0  130 16 0  132 16 0  134 16 0  136 16 0  138 16 0  140 16 0  142 16 0  144 16 0  146 16 0  148 16 0  150 16 0  152 16 0  154 16 0  156 16 0  158 16 0  160 16 0  162 16 0  164 16 0  166 16 0  168 16 0  170 16 0  172 16 0  174 16 0  176 16 0  178 16 0  180 16 0  182 16 0  184 16 0  186 16 0  188 16 0  190 16 0  192 16 0  194 16 0  196 16 0  198 16 0  200 16 0  0 18 0  2 18 0  4 18 0  6 18 0  8 18 0  10 18 0  12 18 0  14 18 0  16 18 0  18 18 0  20 18 0  22 18 0  24 18 0  26 18 0  28 18 0  30 18 0  32 18 0  34 18 0  36 18 0  38 18 0  40 18 0  42 18 0  44 18 0  46 18 0  48 18 0  50 18 0  52 18 0  54 18 0  56 18 0  58 18 0  60 18 0  62 18 0  64 18 0  66 18 0  68 18 0  70 18 0  72 18 0  74 18 0  76 18 0  78 18 0  80 18 0  82 18 0  84 18 0  86 18 0  88 18 0  90 18 0  92 18 0  94 18 0  96 18 0  98 18 0  100 18 0  102 18 0  104 18 0  106 18 0  108 18 0  110 18 0  112 18 0  114 18 0  116 18 0  118 18 0  120 18 0  122 18 0  124 18 0  126 18 0  128 18 0  130 18 0  132 18 0  134 18 0  136 18 0  138 18 0  140 18 0  142 18 0  144 18 0  146 18 0  148 18 0  150 18 0  152 18 0  154 18 0  156 18 0  158 18 0  160 18 0  162 18 0  164 18 0  166 18 0  168 18 0  170 18 0  172 18 0  174 18 0  176 18 0  178 18 0  180 18 0  182 18 0  184 18 0  186 18 0  188 18 0  190 18 0  192 18 0  194 18 0  196 18 0  198 18 0  200 18 0  0 20 0  2 20 0  4 20 0  6 20 0  8 20 0  10 20 0  12 20 0  14 20 0  16 20 0  18 20 0  20 20 0  22 20 0  24 20 0  26 20 0  28 20 0  30 20 0  32 20 0  34 20 0  36 20 0  38 20 0  40 20 0  42 20 0  44 20 0  46 20 0  48 20 0  50 20 0  52 20 0  54 20 0  56 20 0  58 20 0  60 20 0  62 20 0  64 20 0  66 20 0  68 20 0  70 20 0  72 20 0  74 20 0  76 20 0  78 20 0  80 20 0  82 20 0  84 20 0  86 20 0  88 20 0  90 20 0  92 20 0  94 20 0  96 20 0  98 20 0  100 20 0  102 20 0  104 20 0  106 20 0  108 20 0  110 20 0  112 20 0  114 20 0  116 20 0  118 20 0  120 20 0  122 20 0  124 20 0  126 20 0  128 20 0  130 20 0  132 20 0  134 20 0  136 20 0  138 20 0  140 20 0  142 20 0  144 20 0  146 20 0  148 20 0  150 20 0  152 20 0  154 20 0  156 20 0
[...]
<PointData  Scalars="C"> 
<DataArray  type="Float64"  Name="C"  format="ascii">-3.4478631495027050e-11  1.6549640134627355e-10  -8.3716796959440064e-10  3.0105954146187469e-09  -8.1555099820447541e-09  1.8395660994657776e-08  -3.6576583154296713e-08  4.1141255241158846e-08  1.0702410648983490e-07  -5.9312837390247495e-07  8.3574220128915342e-07  1.0347121236859227e-06  -6.4304947783301057e-06  1.3705071282251083e-05  -1.4485872376674067e-05  1.0253185760670628e-05  -2.9317401477144285e-05  -1.9004870419341800e-05  2.4898643041806960e-04  2.7448390926897560e-04  -4.3334985186911732e-04  -1.2939285324369645e-03  -1.9906355622081413e-03  -1.8015728363977551e-03  -4.3465350074755048e-04  7.0555057916266552e-04  1.0184080012064591e-03  7.2053807978781953e-04  2.9378568110566429e-04  -7.0638626483334789e-04  -1.2603868663135080e-03  -1.7426716816160851e-03  -2.2143772364444192e-03  -2.5009949613658961e-03  -1.5213056157892002e-03  8.5178342535491660e-04  1.4675874793506675e-03  9.4456572933289493e-04  -1.5056948811793824e-04  -2.4495422744902156e-04  -1.6910302959968827e-04  1.9162078756197036e-05  1.4317945436399378e-04  -3.8752859803237862e-05  -3.4735973824238728e-05  1.1733971530866923e-05  3.0815673443722773e-06  -1.5292523764857966e-06  -1.3279623281806224e-07  1.2904276659062393e-08  -6.8114602696331092e-08  -7.9399162400987065e-08  -5.6498072662948412e-08  7.1938605755482477e-07  -2.1524608101172870e-06  -4.8217725412595298e-08  2.2477796149946976e-05  -9.0993582300174795e-05  1.9605067576296145e-04  -1.7635296105168933e-04  -2.0988328434374086e-04  6.7367967385271435e-04  -1.4366964589005514e-04  -1.0354637489840806e-03  1.3924164365430262e-04  1.6951850827554178e-03  6.8373465676075729e-04  -1.6936075512249292e-03  -1.9070715001524960e-03  -1.6913909220336550e-03  -1.4630734181125997e-03  -9.1375292843988334e-04  1.6526810107166288e-04  1.1057052583318826e-03  1.5954180483592096e-03  1.2285115946339652e-03  -1.6149917653922614e-04  -2.1823584666763665e-03  -2.7192096245305278e-03  -2.6340102570821572e-03  -2.0496468712598108e-03  7.3942372076922318e-04  2.3087677726437291e-03  1.2330869244201704e-03  -1.0073943304275772e-03  -9.6497998220408524e-04  4.2712712892556528e-04  2.3633581301997099e-04  -1.3890463191840543e-04  -2.2594600366809043e-05  2.0102169749413444e-05  -2.4308155100230133e-07  -1.6606093004412259e-06  4.9779950510651241e-07  -6.6768693436836151e-08  -2.2707905459973194e-07  -6.0820764912537886e-08  -5.6773283538385162e-08  1.0937550739883818e-06  -8.0422902341120057e-06  1.1720771712645395e-05  -2.0085139302460365e-11  3.3469349422464562e-12  2.0379369366000825e-10  -1.1044913102524229e-09  3.0738288148250543e-09  -6.9608140743898221e-09  2.4280610092624375e-08  -9.8644633655255410e-08  2.1242157808425720e-07  1.9493994302930615e-07  -2.9988657209123370e-06  1.2048004393302984e-05  -3.3000456075890408e-05  5.7265150967747785e-05  -2.6982396699652748e-05  -1.4251422275783030e-04  3.3886496571925774e-04  -1.2781789050510675e-06  -1.0830559252614847e-03  -4.6642100268587747e-04  1.6246151737379989e-03  2.3025012909270730e-03  2.0610043646419655e-03  1.1349445862301685e-03  -2.0460988522327906e-04  -1.0512335154208286e-03  -1.4020260403248461e-03  -7.2173797409873642e-04  2.3191846582539549e-04  1.4536059544810922e-03  2.0423624722923027e-03  2.1303910897235651e-03  2.2706293787910278e-03  1.9188591642096701e-03  1.1912224482889353e-04  -1.6793682586151595e-03  -1.7839509050026838e-03  -2.0251591446738662e-04  1.2471664868819591e-03  4.6937733263861982e-04  -4.9259592969460350e-04  -1.5293086606171623e-05  4.8284258972035826e-05  2.7865564292809320e-05  3.9186830299466030e-06  -1.1615059840758938e-05  2.1377181920366988e-06  1.0532929417547208e-06  -1.7096750559197005e-07  6.9856569856227622e-08  1.1704219949197320e-07  4.8725419391710075e-08  -1.7791622546518333e-08  -5.7517828795563774e-07  2.6921021361606819e-06  -2.4726455387786271e-06  -2.0471313897110440e-05  1.0624588669894986e-04  -2.6416330458305261e-04  3.1107638926492523e-04  1.6784930658490091e-04  -8.5616653298680324e-04  4.9666109195742911e-04  1.1026066184939333e-03  -5.0489153633847866e-04  -1.5807619824605012e-03  -7.0169109063337922e-04  1.1997214937205579e-03  1.7987632042098176e-03  1.8203375052325359e-03  1.8014213943078996e-03  1.3710053888265703e-03  2.9386547946923724e-04  -7.5807771762449955e-04  -1.4689074180229853e-03  -1.2450809169715210e-03  -6.2861749035290958e-04  1.1724193067001621e-03  2.3598511075581937e-03  2.6855469460487745e-03  3.0872668965421790e-03  2.6079298157357484e-04  -2.3423947597750643e-03  -1.8008369640519317e-03  1.1305310004716262e-03  1.3064409444973491e-03  -5.6272164217372118e-04  -3.2305969535700900e-04  1.8319089897185533e-04  1.0222814328365681e-05  -2.5003157483379481e-05  4.1182049606852903e-06  1.4146711004001913e-06  -8.6971056812905819e-07  2.5206184469691622e-07  2.7928136545873851e-07  2.0500766894205199e-08  -1.0773289930665264e-07  -1.9224596264968630e-09  4.0103274727647802e-06  -1.2003439726267824e-05  -6.0987380636507546e-11  1.9275084622596456e-10  -1.0500606185802142e-09  4.0614311102372096e-09  -1.0211848961533066e-08  1.6037532835699760e-08  -2.4060095752441114e-08  9.5998959047770297e-08  -3.7681097796243695e-07  6.8841615338804092e-07  4.1705851440219180e-07  -8.1328411234001389e-06  3.6870584374427847e-05  -1.0106037640446882e-04  1.2084932946015957e-04  2.7595648439743651e-05  -5.8141853207552122e-04  4.7720578198911037e-04  1.6885918524126120e-03  4.2248177557499978e-04  -1.6266873972571362e-03  -2.6841859038363729e-03  -2.1780055563721873e-03  -1.2216455424435141e-03  -3.1087151345065179e-04  4.9924522963041304e-04  1.2642427182682093e-03  1.4286226767925687e-03  9.6403142463149139e-04  -4.4265335857480753e-04  -2.4101436763298728e-03  -3.0104145341762973e-03  -2.6133853324532925e-03  -1.2937100517501257e-03  5.8840720550531144e-04  2.2413337916590711e-03  1.7325302575010905e-03  -5.0138109975914362e-04  -1.5753697210130386e-03  -6.1832972165379513e-04  9.1846699849722560e-04  1.6385146603831857e-04  -1.7429126748510912e-04  1.0750996238773079e-05  1.1718058851002188e-05  1.3455251818654456e-05  -6.3540782084688738e-06  5.8241692556053374e-08  1.5188244957218690e-07  -2.4891706839635264e-07  -2.0313243155315553e-07  -4.6040979087276540e-08  4.0280202849380690e-08  7.8471596977961388e-07  -4.9553875721453994e-06  1.0501789529465831e-05  1.2047441236513515e-05  -1.1836716620155764e-04  3.5325689127091675e-04  -5.5645809320846820e-04  1.8179653128175149e-04  7.1526715760692763e-04  -1.0057249556893308e-03  -5.0282116748459843e-04  8.4000404948843081e-04  1.2901417273408885e-03  5.9717540834241839e-04  -1.2404502855010312e-03  -2.4941280587848572e-03  -2.9506335149034561e-03  -2.2341097463440904e-03  -7.3884398087868132e-04  4.7548011869124511e-04  1.0514662594963318e-03  1.1674743337589891e-03  6.6471405606992513e-04  2.5806569818764857e-04  -9.2620913798688461e-04  -2.0308517151971473e-03  -2.3994543760618740e-03  -2.7404158052118655e-03  -4.1444887190371518e-04  2.5357369371146613e-03  2.2008369121764917e-03  -1.2644014257316507e-03  -1.7160818606506798e-03  9.2934928799688783e-04  5.6581542911988221e-04  -3.3079183898043947e-04  -2.4991789674440492e-06  3.8259931414985464e-05  -1.1560886185372532e-05  -4.0656080452907066e-07  1.6902145527398197e-06  -7.0316469927871699e-07  -4.8027149094961118e-07  5.7682590286829241e-08  6.1086148487590641e-08  2.1399087384882386e-07  -4.4617781708682524e-06  1.7570467603707324e-05  1.5767845867226617e-10  -4.6473627784926931e-10  2.4520977471859857e-09  -9.8859809377495359e-09  2.5613343390609759e-08  -4.1100790274711570e-08  4.0882620899568439e-08  -9.0690144508585508e-08  3.2185964845019573e-07  -5.7516151967832831e-07  -4.4786576053671184e-08  4.4023959385663667e-06  -3.6112735832189847e-05  1.1647851732932480e-04  -1.4711832502403455e-04  1.2588238596526678e-04  8.3504207485225117e-04  -2.6383950513517821e-05  -1.3852852535467584e-03  -1.6257896991587553e-03  -9.5518266842778107e-04  1.2945591575502838e-03  1.9844330480212375e-03  2.8331531523654533e-03  3.7060691974350208e-03  4.4105847360057914e-03  4.9225882292721779e-03  5.2062045544955023e-03  5.1789793898677182e-03  4.7495558394814010e-03  3.9157560034871058e-03  3.2417392180878061e-03  3.2096051194020433e-03  3.4464167996070285e-03  1.3625121922275091e-03  -3.5314921239314851e-03  -1.6419608346800551e-03  9.4982252827753046e-04  2.1951068514652334e-03  2.0351693079421218e-04  -1.4067022579585576e-03  -2.8091585920296742e-04  4.5721349348580733e-04  -3.7664239470534118e-05  -2.5101338608515280e-05  2.2947099142395130e-06  1.2728812455999095e-05  -2.6377223202639704e-06  8.7370553101073735e-07  4.6645420964008302e-07  3.1693862727269583e-07  6.3055054533221165e-08  -9.7924852353410989e-08  -6.3772724264254054e-07  7.4397849262917614e-06  -2.3364663703688832e-05  1.9179526753717109e-05  8.7608433429069930e-05  -3.4099220211592440e-04  6.7229360192736388e-04  -6.2539965896116071e-04  -2.9625726431718578e-04  1.2556190311273120e-03  3.7559891543121493e-04  -1.2777691840467867e-03  -2.9163026442662059e-03  1.2539811867086318e-04  2.5840070761189177e-03  3.1550838524575550e-03  3.4747727291150050e-03  4.1981749643609043e-03  4.8229192741344453e-03  5.1011225507466978e-03  5.0385794383380851e-03  4.7269574461011417e-03  4.2099797173421995e-03  3.4900838800079981e-03  2.6362485611994748e-03  2.0981769835976705e-03  1.4572459628324496e-03  8.1575231756677864e-04  -1.9846406414990295e-04  -2.5510410111821255e-03  -1.0627686521626678e-03  1.9361711117968634e-03  1.6370739219642742e-03  -1.4292614236362956e-03  -6.0117287124518675e-04  6.4763388663231628e-04  -4.3771042599688728e-05  -6.0949129120046546e-05  2.4270242047734523e-05  -3.3600249702807979e-06  -2.3283800001480761e-06  1.5414046477049525e-06  7.3190594223347827e-07  -2.0750586373467965e-07  -6.2311537277963494e-08  -3.9941009085940573e-07  5.0330422251550105e-06  -2.2841514769529737e-05  -4.5787954428731847e-10  1.2161119258441298e-09  -6.1845991333327607e-09  2.4501394887806551e-08  -6.4524510885079377e-08  9.9971955838304550e-08  -7.5093044588190661e-08  6.2437573443015482e-08  5.2286733540115252e-08  -1.3365228516320598e-06  2.0688026965707368e-06  9.8750772939010319e-07  1.1064163735455891e-05  -1.1134758817241063e-04  6.9417402411936337e-05  1.3555603807237132e-04  -6.2324981564207253e-04  -1.0677355110046824e-03  -8.8992378682329373e-04  1.1799653627070381e-03  3.0902161280149847e-03  5.0124381496859018e-03  6.7202064570330055e-03  9.7667556619421194e-03  1.3778878103231052e-02  1.7658213320010857e-02  2.0602933817803325e-02  2.2276234876496069e-02  2.2550749646723347e-02  2.1414610557973196e-02  1.8965558103196230e-02  1.5443312708420030e-02  1.1406742213888373e-02  7.8087650066900891e-03  5.1953831204736003e-03  3.1316521093720188e-03  3.0625648041672586e-03  1.6342781759054376e-03  -3.4916022714339503e-03  2.4040761147937290e-04  2.1647855714221759e-03  1.9178158608265236e-05  -1.1958806506787325e-03  1.0353793527025008e-04  1.1311039732116054e-04  -1.5406587606429847e-05  -7.1235444926853789e-06  7.4949931631375506e-06  -3.2246364754841753e-06  -1.6679792320524283e-07  -6.6154700519295461e-07  -7.8505984949887175e-08  2.0228288733060895e-07  2.0658562664695510e-07  -6.9186200068411978e-06  4.2129724918692134e-05  -7.1187425892048131e-05  1.6399666296232042e-05  2.0707010174620427e-04  -6.4021674940571086e-04  1.1482856696215862e-03  1.8707620472718930e-04  -2.5725102475876913e-03  1.0164738235840839e-04  2.0752616819707083e-03  3.2971371996565794e-03  5.1018898452115822e-03  7.6082648451316643e-03  1.1158580754125669e-02  1.5165479767199300e-02  1.8645527519460321e-02  2.1042753523538814e-02  2.2141590400483146e-02  2.1863089884852100e-02  2.0218236185402277e-02  1.7325718081834744e-02  1.3512119441458683e-02  9.5921743541317120e-03  6.6621579745095904e-03  5.0345155311566723e-03  3.4435703557848928e-03  1.7527541998553203e-03  1.0521693774446018e-03  1.0112369028414869e-04  -2.2623459468055032e-03  -2.8693626233766028e-04  1.9228975571628261e-03  2.7379290150598633e-05  -9.4466366697888422e-04  2.9037258823909150e-04  8.2503866694122563e-05  -5.1897476382740297e-05  1.2594738885340685e-05  2.1027282509326214e-06  -2.6448126598162966e-06  -1.0097478426814953e-06  5.1170501985884504e-07  2.9170212225946628e-08  6.7096916906022201e-07  -6.0762254561189264e-06  2.7742935073344221e-05  1.0629739741617783e-09  -2.8908379243438614e-09  1.4587872219773740e-08  -5.9174904761979101e-08  1.5596483151544083e-07  -2.1888021550611957e-07  8.2747136854623246e-08  2.4658571783550103e-07  -1.2919778976164787e-06  8.4295557168208220e-06  -1.3175737562522887e-05  -5.5153368804194892e-06  5.4619121304434555e-05  2.0419219802701814e-04  6.1509164808546150e-04  -5.9829799214689060e-04  -1.1115564896610451e-03  1.6269252863658707e-03  3.8447515206409323e-03  7.2433665175994939e-03  1.6464176659439184e-02  4.1942425951187079e-02  9.0928155264908370e-02  1.5226759328711764e-01  2.0644270144821808e-01  2.4544131896695009e-01  2.7038020331984036e-01  2.8339894516267289e-01  2.8552695539457201e-01  2.7698434404909494e-01  2.5731977109836018e-01  2.2502993376619126e-01  1.7803068020786977e-01  1.1880177880870496e-01  6.2251482220861194e-02  2.6015098800178094e-02  1.0487098225829222e-02  5.1619527988953284e-03  3.0557968149588772e-03  2.5246332917518858e-03  -2.7077184187018258e-03  4.5152662311969050e-04  1.7112568641022617e-03  -5.7342592185019754e-04  -3.8993514662765029e-04  1.4198091475262458e-04  2.4959970500665840e-05  -7.8364671191021802e-06  7.0312034837371556e-06  -6.5015741144212613e-07  1.6781630297102324e-06  -9.0498531279843368e-08  -3.0678659377000069e-07  1.2180603743443800e-06  4.1341722613758177e-06  -5.4249302976187658e-05  1.5328382150250344e-04  -2.2399093802313820e-04  1.9342339125853791e-04  8.9788569436437542e-04  -2.0844859118270094e-03  7.7190869655810771e-04  2.4127320855362624e-03  5.0179441307486887e-03  1.0116501131604630e-02  2.5191467370510368e-02  6.0575945988626000e-02  1.1642220782603022e-01  1.7549860588928021e-01  2.2252489507949710e-01  2.5472282994669498e-01  2.7421417884599780e-01  2.8264119652119174e-01  2.8054938069422719e-01  2.6771883888505282e-01  2.4303304791922384e-01  2.0424642575343541e-01  1.5027726790399887e-01  8.9394547025142754e-02  4.1125820969932052e-02  1.6167551986656342e-02  7.2460733076895496e-03  4.4659797883552952e-03  2.6221366034983660e-03  1.5401529646703435e-03  -6.8793167651146027e-04  -1.4488840274288924e-03  1.0797543405218464e-03  8.7573497718020337e-04  -7.1234810390893920e-04  5.0502359842045171e-05  1.0543056748350162e-04  -3.5373729271955258e-05  1.5947453350517039e-06  3.9991380235585690e-06  1.3684865534636624e-06  -1.0225757269416010e-06  1.2593531157329438e-07  -1.0580166882125278e-06  7.6549246241962132e-06  -3.2301353232650894e-05  -2.1783854613311615e-09  5.7875149327264004e-09  -3.1152066117724789e-08  1.3358841846966852e-07  -3.5082573412386397e-07  4.6900704513112368e-07  2.9778647683348227e-07  -1.1350850258178490e-06  5.9201410500345301e-06  -2.4426273889695276e-05  4.8714568866609155e-05  -1.5539118698280353e-05  -5.8853558005132559e-05  1.0694945347529754e-04  -1.8000192788481611e-03  1.4092474250800846e-03  3.7150369597830388e-03  8.6970506738249104e-03  2.6814540368422436e-02  8.5724193342365598e-02  2.0800982096408877e-01  3.9252005902215226e-01  5.9181031726998301e-01  7.3150760362367628e-01  8.0406429534343427e-01  8.3920492861484197e-01  8.5680058422466399e-01  8.6487291531998745e-01  8.6612526034704851e-01  8.6096345817346676e-01  8.4795746326646737e-01  8.2221148210855521e-01  7.7048930523224191e-01  6.6609615407082390e-01  4.9113001811002205e-01  2.9300086548630611e-01  1.4049708026520918e-01  5.1284659588523497e-02  1.5693592545135134e-02  6.3398833414165506e-03  3.4866600256395499e-03  2.3077807364641481e-03  -2.4073154926638738e-03  1.2936048640376802e-03  5.4669200985713897e-04  -5.7242117857453302e-04  6.7150413301970927e-05  4.3904785973024713e-05  -1.1713850093847577e-05  1.7128616684001403e-06  -3.2768341917809980e-06  5.3119935676237898e-07  7.7830065841502272e-07  -1.8308976610686599e-06  1.0981868617156403e-05  5.7665905231763183e-05  -2.5400746417285266e-04  5.7290215698595876e-04  -8.0897013154467565e-04  -8.4731185287392568e-04  2.1933908962640030e-03  5.9553956023024332e-03  1.5127469612835004e-02  4.9739023473161136e-02  1.3707812406369463e-01  2.8728332038854837e-01  4.8421561808826918e-01  6.6072213124326740e-01  7.6718887646767586e-01  8.2000961875066636e-01  8.4614434425974872e-01  8.5924748926554828e-01  8.6442090354730616e-01  8.6317106996677950e-01  8.5509046902993091e-01  8.3739338291283660e-01  8.0185007143485998e-01  7.2829101268127472e-01  5.8731128109216868e-01  3.8816117172820741e-01  2.0528937995987873e-01  8.4467792985026491e-02  2.6434601014915651e-02  8.7572951815281085e-03  4.6764202030111484e-03  2.7480192460807543e-03  1.3500932344845283e-03  -1.4924207187882450e-03  3.6172432422817136e-06  1.0417324683388797e-03  -4.1407342883642350e-04  -6.5176486132548822e-05  9.0560314093382190e-05  -1.0669271348650017e-05  -4.1097216949263202e-06  -1.1244839883811141e-06  1.6699722517214850e-06  -4.4721731590682104e-07  1.6144427687267781e-06  -9.8371229190492736e-06  3.6609070091412480e-05  4.1186030892714786e-09  -1.0380972816270563e-08  5.8554004779534352e-08  -2.6663432566478387e-07  7.7530516038210862e-07  -7.4401265686854870e-07  -1.1584768675899557e-06  6.3485420327669293e-06  -1.3561198032313222e-05  6.1094600840004765e-05  -1.3899390047725848e-04  2.1290395888504056e-04  -5.4578811397220434e-05  1.2950357416904675e-05  2.4003052586900118e-03  7.1303070557657928e-03  2.3363081559971938e-02  9.3457074206158258e-02  2.7442276643512387e-01  5.5233963154946208e-01  7.8186996345487780e-01  9.0463929684558442e-01  9.6144467056449789e-01  9.8449395086506097e-01  9.9289199232437342e-01  9.9603625324808387e-01  9.9734133783009282e-01  9.9787415517645173e-01  9.9794243677475825e-01  9.9758659924919957e-01  9.9664585766374081e-01  9.9451215843159058e-01  9.8919756504678369e-01  9.7480895105232424e-01  9.3765772820620896e-01  8.5453656860809846e-01  6.8676152805730739e-01  4.2035778954654618e-01  1.7785274151725775e-01  5.2026864414515893e-02  1.3664573887601297e-02  5.8943958549267936e-03  3.5176069859903340e-03  5.3201054522476731e-05  -6.1978860554521621e-04  1.0568506765441885e-03  -4.1706332541645210e-04  -3.2097066322614112e-06  4.8546762372046120e-05  -5.2687305129428677e-06  6.0037137856479194e-06  -1.2200068351202110e-06  -2.2432306337635138e-06  7.6266119891293251e-06  -3.7938448756845853e-05  -1.4397409077877954e-05  3.6443479599340261e-04  -9.6140998961361359e-04  1.7978576949692964e-03  4.5423128414906399e-03  1.3187867927651736e-02  5.0739493863051106e-02  1.7398426322456120e-01  4.1342480184710845e-01  6.8057051456794238e-01  8.5090154185385447e-01  9.3575495913404116e-01  9.7394208714949526e-01  9.8881622500170074e-01  9.9430385833862622e-01  9.9648982355954741e-01  9.9744378026109715e-01  9.9780136493427651e-01  9.9773129491434109e-01  9.9719273930079289e-01  9.9586831171825496e-01  9.9265913996003996e-01  9.8406602761232187e-01  9.6054778757933679e-01  9.0294451604461046e-01  7.7903885968851005e-01  5.4853033348119262e-01  2.7164105147200779e-01  9.2350023460065878e-02  2.3141002570135020e-02  7.3171108410625060e-03  4.0343246330118701e-03  2.5144656695420234e-03  -5.8923734891587129e-04  -9.3703903675203986e-04  1.0312898451987488e-03  -1.8250942949792832e-04  -8.6772117708606292e-05  4.5645212469466392e-05  6.1103781623646013e-06  4.6816305620918543e-07  -1.0875088766174245e-06  6.5523124231598525e-07  -2.3024461003093615e-06  1.2729575611882275e-05  -4.0856951869727018e-05  -9.2482362231310623e-09  1.9719209440626221e-08  -9.6930367207490530e-08  5.1263257690699301e-07  -1.4032219481698019e-06  1.6605036927836870e-06  6.0028905784085622e-06  -1.6398437726143283e-05  3.7180053084509383e-05  -1.20086890227691