<?xml version="1.0"?>
<VTKFile type="UnstructuredGrid"  version="0.1"  >
<UnstructuredGrid>
<Piece  NumberOfPoints="11156" NumberOfCells="22000">
<Points>
<DataArray  type="Float64"  NumberOfComponents="3"  format="ascii">0 0 0  2 0 0  4 0 0  6 0 0  8 0 0  10 0 0  12 0 0  14 0 0  16 0 0  18 0 0  20 0 0  22 0 0  24 0 0  26 0 0  28 0 0  30 0 0  32 0 0  34 0 0  36 0 0  38 0 0  40 0 0  42 0 0  44 0 0  46 0 0  48 0 0  50 0 0  52 0 0  54 0 0  56 0 0  58 0 0  60 0 0  62 0 0  64 0 0  66 0 0  68 0 0  70 0 0  72 0 0  74 0 0  76 0 0  78 0 0  80 0 0  82 0 0  84 0 0  86 0 0  88 0 0  90 0 0  92 0 0  94 0 0  96 0 0  98 0 0  100 0 0  102 0 0  104 0 0  106 0 0  108 0 0  110 0 0  112 0 0  114 0 0  116 0 0  118 0 0  120 0 0  122 0 0  124 0 0  126 0 0  128 0 0  130 0 0  132 0 0  134 0 0  136 0 0  138 0 0  140 0 0  142 0 0  144 0 0  146 0 0  148 0 0  150 0 0  152 0 0  154 0 0  156 0 0  158 0 0  160 0 0  162 0 0  164 0 0  166 0 0  168 0 0  170 0 0  172 0 0  174 0 0  176 0 0  178 0 0  180 0 0  182 0 0  184 0 0  186 0 0  188 0 0  190 0 0  192 0 0  194 0 0  196 0 0  198 0 0  200 0 0  0 2 0  2 2 0  4 2 0  6 2 0  8 2 0  10 2 0  12 2 0  14 2 0  16 2 0  18 2 0  20 2 0  22 2 0  24 2 0  26 2 0  28 2 0  30 2 0  32 2 0  34 2 0  36 2 0  38 2 0  40 2 0  42 2 0  44 2 0  46 2 0  48 2 0  50 2 0  52 2 0  54 2 0  56 2 0  58 2 0  60 2 0  62 2 0  64 2 0  66 2 0  68 2 0  70 2 0  72 2 0  74 2 0  76 2 0  78 2 0  80 2 0  82 2 0  84 2 0  86 2 0  88 2 0  90 2 0  92 2 0  94 2 0  96 2 0  98 2 0  100 2 0  102 2 0  104 2 0  106 2 0  108 2 0  110 2 0  112 2 0  114 2 0  116 2 0  118 2 0  120 2 0  122 2 0  124 2 0  126 2 0  128 2 0  130 2 0  132 2 0  134 2 0  136 2 0  138 2 0  140 2 0  142 2 0  144 2 0  146 2 0  148 2 0  150 2 0  152 2 0  154 2 0  156 2 0  158 2 0  160 2 0  162 2 0  164 2 0  166 2 0  168 2 0  170 2 0  172 2 0  174 2 0  176 2 0  178 2 0  180 2 0  182 2 0  184 2 0  186 2 0  188 2 0  190 2 0  192 2 0  194 2 0  196 2 0  198 2 0  200 2 0  0 4 0  2 4 0  4 4 0  6 4 0  8 4 0  10 4 0  12 4 0  14 4 0  16 4 0  18 4 0  20 4 0  22 4 0  24 4 0  26 4 0  28 4 0  30 4 0  32 4 0  34 4 0  36 4 0  38 4 0  40 4 0  42 4 0  44 4 0  46 4 0  48 4 0  50 4 0  52 4 0  54 4 0  56 4 0  58 4 0  60 4 0  62 4 0  64 4 0  66 4 0  68 4 0  70 4 0  72 4 0  74 4 0  76 4 0  78 4 0  80 4 0  82 4 0  84 4 0  86 4 0  88 4 0  90 4 0  92 4 0  94 4 0  96 4 0  98 4 0  100 4 0  102 4 0  104 4 0  106 4 0  108 4 0  110 4 0  112 4 0  114 4 0  116 4 0  118 4 0  120 4 0  122 4 0  124 4 0  126 4 0  128 4 0  130 4 0  132 4 0  134 4 0  136 4 0  138 4 0  140 4 0  142 4 0  144 4 0  146 4 0  148 4 0  150 4 0  152 4 0  154 4 0  156 4 0  158 4 0  160 4 0  162 4 0  164 4 0  166 4 0  168 4 0  170 4 0  172 4 0  174 4 0  176 4 0  178 4 0  180 4 0  182 4 0  184 4 0  186 4 0  188 4 0  190 4 0  192 4 0  194 4 0  196 4 0  198 4 0  200 4 0  0 6 0  2 6 0  4 6 0  6 6 0  8 6 0  10 6 0  12 6 0  14 6 0  16 6 0  18 6 0  20 6 0  22 6 0  24 6 0  26 6 0  28 6 0  30 6 0  32 6 0  34 6 0  36 6 0  38 6 0  40 6 0  42 6 0  44 6 0  46 6 0  48 6 0  50 6 0  52 6 0  54 6 0  56 6 0  58 6 0  60 6 0  62 6 0  64 6 0  66 6 0  68 6 0  70 6 0  72 6 0  74 6 0  76 6 0  78 6 0  80 6 0  82 6 0  84 6 0  86 6 0  88 6 0  90 6 0  92 6 0  94 6 0  96 6 0  98 6 0  100 6 0  102 6 0  104 6 0  106 6 0  108 6 0  110 6 0  112 6 0  114 6 0  116 6 0  118 6 0  120 6 0  122 6 0  124 6 0  126 6 0  128 6 0  130 6 0  132 6 0  134 6 0  136 6 0  138 6 0  140 6 0  142 6 0  144 6 0  146 6 0  148 6 0  150 6 0  152 6 0  154 6 0  156 6 0  158 6 0  160 6 0  162 6 0  164 6 0  166 6 0  168 6 0  170 6 0  172 6 0  174 6 0  176 6 0  178 6 0  180 6 0  182 6 0  184 6 0  186 6 0  188 6 0  190 6 0  192 6 0  194 6 0  196 6 0  198 6 0  200 6 0  0 8 0  2 8 0  4 8 0  6 8 0  8 8 0  10 8 0  12 8 0  14 8 0  16 8 0  18 8 0  20 8 0  22 8 0  24 8 0  26 8 0  28 8 0  30 8 0  32 8 0  34 8 0  36 8 0  38 8 0  40 8 0  42 8 0  44 8 0  46 8 0  48 8 0  50 8 0  52 8 0  54 8 0  56 8 0  58 8 0  60 8 0  62 8 0  64 8 0  66 8 0  68 8 0  70 8 0  72 8 0  74 8 0  76 8 0  78 8 0  80 8 0  82 8 0  84 8 0  86 8 0  88 8 0  90 8 0  92 8 0  94 8 0  96 8 0  98 8 0  100 8 0  102 8 0  104 8 0  106 8 0  108 8 0  110 8 0  112 8 0  114 8 0  116 8 0  118 8 0  120 8 0  122 8 0  124 8 0  126 8 0  128 8 0  130 8 0  132 8 0  134 8 0  136 8 0  138 8 0  140 8 0  142 8 0  144 8 0  146 8 0  148 8 0  150 8 0  152 8 0  154 8 0  156 8 0  158 8 0  160 8 0  162 8 0  164 8 0  166 8 0  168 8 0  170 8 0  172 8 0  174 8 0  176 8 0  178 8 0  180 8 0  182 8 0  184 8 0  186 8 0  188 8 0  190 8 0  192 8 0  194 8 0  196 8 0  198 8 0  200 8 0  0 10 0  2 10 0  4 10 0  6 10 0  8 10 0  10 10 0  12 10 0  14 10 0  16 10 0  18 10 0  20 10 0  22 10 0  24 10 0  26 10 0  28 10 0  30 10 0  32 10 0  34 10 0  36 10 0  38 10 0  40 10 0  42 10 0  44 10 0  46 10 0  48 10 0  50 10 0  52 10 0  54 10 0  56 10 0  58 10 0  60 10 0  62 10 0  64 10 0  66 10 0  68 10 0  70 10 0  72 10 0  74 10 0  76 10 0  78 10 0  80 10 0  82 10 0  84 10 0  86 10 0  88 10 0  90 10 0  92 10 0  94 10 0  96 10 0  98 10 0  100 10 0  102 10 0  104 10 0  106 10 0  108 10 0  110 10 0  112 10 0  114 10 0  116 10 0  118 10 0  120 10 0  122 10 0  124 10 0  126 10 0  128 10 0  130 10 0  132 10 0  134 10 0  136 10 0  138 10 0  140 10 0  142 10 0  144 10 0  146 10 0  148 10 0  150 10 0  152 10 0  154 10 0  156 10 0  158 10 0  160 10 0  162 10 0  164 10 0  166 10 0  168 10 0  170 10 0  172 10 0  174 10 0  176 10 0  178 10 0  180 10 0  182 10 0  184 10 0  186 10 0  188 10 0  190 10 0  192 10 0  194 10 0  196 10 0  198 10 0  200 10 0  0 12 0  2 12 0  4 12 0  6 12 0  8 12 0  10 12 0  12 12 0  14 12 0  16 12 0  18 12 0  20 12 0  22 12 0  24 12 0  26 12 0  28 12 0  30 12 0  32 12 0  34 12 0  36 12 0  38 12 0  40 12 0  42 12 0  44 12 0  46 12 0  48 12 0  50 12 0  52 12 0  54 12 0  56 12 0  58 12 0  60 12 0  62 12 0  64 12 0  66 12 0  68 12 0  70 12 0  72 12 0  74 12 0  76 12 0  78 12 0  80 12 0  82 12 0  84 12 0  86 12 0  88 12 0  90 12 0  92 12 0  94 12 0  96 12 0  98 12 0  100 12 0  102 12 0  104 12 0  106 12 0  108 12 0  110 12 0  112 12 0  114 12 0  116 12 0  118 12 0  120 12 0  122 12 0  124 12 0  126 12 0  128 12 0  130 12 0  132 12 0  134 12 0  136 12 0  138 12 0  140 12 0  142 12 0  144 12 0  146 12 0  148 12 0  150 12 0  152 12 0  154 12 0  156 12 0  158 12 0  160 12 0  162 12 0  164 12 0  166 12 0  168 12 0  170 12 0  172 12 0  174 12 0  176 12 0  178 12 0  180 12 0  182 12 0  184 12 0  186 12 0  188 12 0  190 12 0  192 12 0  194 12 0  196 12 0  198 12 0  200 12 0  0 14 0  2 14 0  4 14 0  6 14 0  8 14 0  10 14 0  12 14 0  14 14 0  16 14 0  18 14 0  20 14 0  22 14 0  24 14 0  26 14 0  28 14 0  30 14 0  32 14 0  34 14 0  36 14 0  38 14 0  40 14 0  42 14 0  44 14 0  46 14 0  48 14 0  50 14 0  52 14 0  54 14 0  56 14 0  58 14 0  60 14 0  62 14 0  64 14 0  66 14 0  68 14 0  70 14 0  72 14 0  74 14 0  76 14 0  78 14 0  80 14 0  82 14 0  84 14 0  86 14 0  88 14 0  90 14 0  92 14 0  94 14 0  96 14 0  98 14 0  100 14 0  102 14 0  104 14 0  106 14 0  108 14 0  110 14 0  112 14 0  114 14 0  116 14 0  118 14 0  120 14 0  122 14 0  124 14 0  126 14 0  128 14 0  130 14 0  132 14 0  134 14 0  136 14 0  138 14 0  140 14 0  142 14 0  144 14 0  146 14 0  148 14 0  150 14 0  152 14 0  154 14 0  156 14 0  158 14 0  160 14 0  162 14 0  164 14 0  166 14 0  168 14 0  170 14 0  172 14 0  174 14 0  176 14 0  178 14 0  180 14 0  182 14 0  184 14 0  186 14 0  188 14 0  190 14 0  192 14 0  194 14 0  196 14 0  198 14 0  200 14 0  0 16 0  2 16 0  4 16 0  6 16 0  8 16 0  10 16 0  12 16 0  14 16 0  16 16 0  18 16 0  20 16 0  22 16 0  24 16 0  26 16 0  28 16 0  30 16 0  32 16 0  34 16 0  36 16 0  38 16 0  40 16 0  42 16 0  44 16 0  46 16 0  48 16 0  50 16 0  52 16 0  54 16 0  56 16 0  58 16 0  60 16 0  62 16 0  64 16 0  66 16 0  68 16 0  70 16 0  72 16 0  74 16 0  76 16 0  78 16 0  80 16 0  82 16 0  84 16 0  86 16 0  88 16 0  90 16 0  92 16 0  94 16 0  96 16 0  98 16 0  100 16 0  102 16 0  104 16 0  106 16 0  108 16 0  110 16 0  112 16 0  114 16 0  116 16 0  118 16 0  120 16 0  122 16 0  124 16 0  126 16 0  128 16 0  130 16 0  132 16 0  134 16 0  136 16 0  138 16 0  140 16 0  142 16 0  144 16 0  146 16 0  148 16 0  150 16 0  152 16 0  154 16 0  156 16 0  158 16 0  160 16 0  162 16 0  164 16 0  166 16 0  168 16 0  170 16 0  172 16 0  174 16 0  176 16 0  178 16 0  180 16 0  182 16 0  184 16 0  186 16 0  188 16 0  190 16 0  192 16 0  194 16 0  196 16 0  198 16 0  200 16 0  0 18 0  2 18 0  4 18 0  6 18 0  8 18 0  10 18 0  12 18 0  14 18 0  16 18 0  18 18 0  20 18 0  22 18 0  24 18 0  26 18 0  28 18 0  30 18 0  32 18 0  34 18 0  36 18 0  38 18 0  40 18 0  42 18 0  44 18 0  46 18 0  48 18 0  50 18 0  52 18 0  54 18 0  56 18 0  58 18 0  60 18 0  62 18 0  64 18 0  66 18 0  68 18 0  70 18 0  72 18 0  74 18 0  76 18 0  78 18 0  80 18 0  82 18 0  84 18 0  86 18 0  88 18 0  90 18 0  92 18 0  94 18 0  96 18 0  98 18 0  100 18 0  102 18 0  104 18 0  106 18 0  108 18 0  110 18 0  112 18 0  114 18 0  116 18 0  118 18 0  120 18 0  122 18 0  124 18 0  126 18 0  128 18 0  130 18 0  132 18 0  134 18 0  136 18 0  138 18 0  140 18 0  142 18 0  144 18 0  146 18 0  148 18 0  150 18 0  152 18 0  154 18 0  156 18 0  158 18 0  160 18 0  162 18 0  164 18 0  166 18 0  168 18 0  170 18 0  172 18 0  174 18 0  176 18 0  178 18 0  180 18 0  182 18 0  184 18 0  186 18 0  188 18 0  190 18 0  192 18 0  194 18 0  196 18 0  198 18 0  200 18 0  0 20 0  2 20 0  4 20 0  6 20 0  8 20 0  10 20 0  12 20 0  14 20 0  16 20 0  18 20 0  20 20 0  22 20 0  24 20 0  26 20 0  28 20 0  30 20 0  32 20 0  34 20 0  36 20 0  38 20 0  40 20 0  42 20 0  44 20 0  46 20 0  48 20 0  50 20 0  52 20 0  54 20 0  56 20 0  58 20 0  60 20 0  62 20 0  64 20 0  66 20 0  68 20 0  70 20 0  72 20 0  74 20 0  76 20 0  78 20 0  80 20 0  82 20 0  84 20 0  86 20 0  88 20 0  90 20 0  92 20 0  94 20 0  96 20 0  98 20 0  100 20 0  102 20 0  104 20 0  106 20 0  108 20 0  110 20 0  112 20 0  114 20 0  116 20 0  118 20 0  120 20 0  122 20 0  124 20 0  126 20 0  128 20 0  130 20 0  132 20 0  134 20 0  136 20 0  138 20 0  140 20 0  142 20 0  144 20 0  146 20 0  148 20 0  150 20 0  152 20 0  154 20 0  156 20 0
[...]
<PointData  Scalars="C"> 
<DataArray  type="Float64"  Name="C"  format="ascii">-3.5302272996853389e-11  1.6730929365100734e-10  -8.4221173609524080e-10  3.0174949254989558e-09  -8.1399828430531940e-09  1.8287045651763300e-08  -3.6456403030441959e-08  4.2816429532507312e-08  9.5320593077471727e-08  -5.5785113238498512e-07  8.1194954573804729e-07  7.7148480184357342e-07  -4.9971373126265679e-06  9.7629229168589599e-06  -9.2075306094783287e-06  1.2907565474246052e-05  -5.0215044683128291e-05  -5.7267040165345268e-06  2.9939189460928935e-04  2.7020407439214584e-04  -5.0235124093128193e-04  -1.3293540050043156e-03  -1.9829771231261364e-03  -1.7772887789622512e-03  -4.1164861087685737e-04  7.5560573702144497e-04  1.0793640706440314e-03  7.3642987991881493e-04  2.7732937135417429e-04  -7.4641793378179492e-04  -1.2816319695022561e-03  -1.7183753218634704e-03  -2.1639425079913841e-03  -2.4446743701785488e-03  -1.4952708402578665e-03  8.9274280935663962e-04  1.4986132185283870e-03  9.0864768171324440e-04  -2.0119012413855489e-04  -2.3230948982372210e-04  -1.4399170161689650e-04  2.7824388720606914e-06  1.4314173900335783e-04  -3.5740201448511504e-05  -3.5677873091335080e-05  1.1808821599306568e-05  3.0780269688764208e-06  -1.5192072124286337e-06  -1.3672695456982595e-07  1.2773585112286224e-08  -6.9345941260836426e-08  -7.8649225042122115e-08  -6.3711795901769109e-08  7.4943195857131945e-07  -2.1884300283139783e-06  -3.2885167087426782e-07  2.4275161923036527e-05  -9.6562112967615719e-05  2.0638178672813614e-04  -1.8372718818481513e-04  -2.2120039604138413e-04  7.0198076768352824e-04  -1.5524425030224201e-04  -1.0654292407186311e-03  1.6977538642926767e-04  1.7073066321479046e-03  6.6591551678229078e-04  -1.6960878759148079e-03  -1.8633051963485147e-03  -1.6629103126652633e-03  -1.4471973610180838e-03  -9.2540357697901100e-04  1.5591612114179666e-04  1.1126505751390459e-03  1.6080693705341118e-03  1.2272889713577186e-03  -1.4622514019733542e-04  -2.1285749162848447e-03  -2.6695540030954113e-03  -2.5902863990951760e-03  -2.0370418458435929e-03  7.0099219774338016e-04  2.2794916072308084e-03  1.2389480592243042e-03  -1.0133916913171426e-03  -9.8840441781541293e-04  4.3331256542845470e-04  2.4505418056144099e-04  -1.4285220604874098e-04  -2.2927928576816590e-05  2.0661739932833277e-05  -3.4627934312181991e-07  -1.6802095248511627e-06  5.1453947680737153e-07  -7.0416274897421827e-08  -2.3044457709483373e-07  -6.1063137764801787e-08  -5.7793101310326603e-08  1.1005796213966312e-06  -8.0772089078311085e-06  1.1770835960646569e-05  -1.8889331526140446e-11  1.9794924439039918e-12  2.0267707696223086e-10  -1.0778399814437852e-09  2.9310516341430079e-09  -6.4763980691599902e-09  2.3266070827862220e-08  -9.9670438059640469e-08  2.3254842593065313e-07  1.1692438139345565e-07  -2.8978208356516550e-06  1.2376219498225282e-05  -3.5374089725355994e-05  6.4813446922856949e-05  -3.9581606280504261e-05  -1.3932689551728728e-04  3.7496765003806383e-04  -5.3204934060154765e-05  -1.1516220680203638e-03  -3.6815977305351390e-04  1.7558459961149826e-03  2.2910684417450306e-03  1.9948709519572914e-03  1.0222699261985370e-03  -3.1500582326523342e-04  -1.1083279683662896e-03  -1.3803363304648413e-03  -6.7378302181514188e-04  3.2450332913090338e-04  1.5123205986043646e-03  2.0181811954614421e-03  2.0764767812854125e-03  2.2049452666653207e-03  1.8070230703381162e-03  1.8584524086505961e-05  -1.6551047296394586e-03  -1.7430840625956444e-03  -1.2157627895965165e-04  1.2666734557284082e-03  4.4544840450205098e-04  -5.3599443944581484e-04  6.6147931657603885e-06  5.4131621578488483e-05  2.2006431333818881e-05  5.1203575078861365e-06  -1.1672139605239115e-05  2.2286917046773806e-06  1.0189261471288436e-06  -1.6484054484104162e-07  7.1900369489944758e-08  1.1845475861352091e-07  4.7436911276282240e-08  -8.8120817508827260e-09  -6.2542469450430466e-07  2.8170432986009318e-06  -2.2778283415888575e-06  -2.2825457304748735e-05  1.1467682274862441e-04  -2.8147021546121232e-04  3.2927699153596242e-04  1.7574979188746188e-04  -8.8837678627417833e-04  5.2477385899447936e-04  1.1097997701082355e-03  -5.1464609919518332e-04  -1.5199965541372034e-03  -7.4368148846511389e-04  1.1157833863691242e-03  1.7415910870072163e-03  1.7607245214230649e-03  1.7627943276019562e-03  1.4157141595193125e-03  3.6272530705806457e-04  -7.0161522447473551e-04  -1.4339643743746318e-03  -1.2779463993987921e-03  -7.4080930805287709e-04  1.0388504009276522e-03  2.2741732305818921e-03  2.6143192066584824e-03  3.1053820235765620e-03  4.4545115504578050e-04  -2.2702345838135456e-03  -1.8725312523007731e-03  1.0729010535590023e-03  1.3524857070974713e-03  -5.5910510312208027e-04  -3.4584012885467062e-04  1.8798057419319429e-04  1.2056746777774185e-05  -2.5869648107118340e-05  4.1939603036663639e-06  1.4599703339616213e-06  -8.9621308344820644e-07  2.5512195486637803e-07  2.8456948508941539e-07  2.0638758757594344e-08  -1.0654805111326537e-07  -7.8215877818059968e-09  4.0339725819015414e-06  -1.2054957075619190e-05  -6.8146059844706410e-11  2.0577810953483019e-10  -1.0822873159246904e-09  4.1008210806682173e-09  -1.0126511447337765e-08  1.5397617134962941e-08  -2.1748305850474510e-08  9.1728709436885767e-08  -3.9268239808445502e-07  8.2775662181597185e-07  2.2866923785821234e-09  -7.6654483246894677e-06  3.8268544547119135e-05  -1.1082417808518474e-04  1.4389821150862566e-04  -2.2902904666018638e-06  -6.0753885579796182e-04  5.9094695560556773e-04  1.7014971534493532e-03  2.4463375386905893e-04  -1.7609702909032725e-03  -2.6164430290349511e-03  -2.0518394309841904e-03  -1.0893062805223763e-03  -1.9961979137034623e-04  6.1099772696657608e-04  1.3158419931224045e-03  1.4240454576525598e-03  9.0914002839179956e-04  -5.7087736385193352e-04  -2.4696037225710420e-03  -2.9494191036668954e-03  -2.4708471962457601e-03  -1.0682819737010440e-03  6.7136521884728529e-04  2.1689942231326309e-03  1.5689512192189564e-03  -5.7667931320083763e-04  -1.5257405056377383e-03  -5.4344722150282288e-04  9.3421112417251798e-04  1.3359539052129098e-04  -1.8120306803309856e-04  2.2588274764316979e-05  8.8060837838698397e-06  1.3732351942026869e-05  -6.4012723215930110e-06  1.2240634994155773e-07  1.2989900449056591e-07  -2.5576144306858257e-07  -2.0385905936444599e-07  -4.3715132980321477e-08  2.9622102919541891e-08  8.5123216609698115e-07  -5.2159326982336847e-06  1.0821968946454837e-05  1.3548494268958293e-05  -1.2546658408941507e-04  3.6789722157070114e-04  -5.7367758995498350e-04  1.9615905023745735e-04  7.0806850189315904e-04  -9.6884302096212325e-04  -4.8354892319199235e-04  7.4801401683935508e-04  1.1913682781631637e-03  6.6290597202183724e-04  -1.0755565216193370e-03  -2.3622369779176438e-03  -2.8970692387357091e-03  -2.2936248648747922e-03  -8.2936814170887448e-04  4.0921854767732692e-04  1.0331763835754262e-03  1.2078717919292564e-03  7.4719950617513115e-04  3.5446792747387821e-04  -7.7156052834395682e-04  -1.9262575476999102e-03  -2.2798405364857881e-03  -2.7473659736420380e-03  -6.4112709569830162e-04  2.3720699300244421e-03  2.3287149092359053e-03  -1.1166495408095121e-03  -1.7879965761772199e-03  8.8166312342217339e-04  6.0947073199467514e-04  -3.3647430634722359e-04  -7.6440907217781547e-06  3.9860314056883236e-05  -1.1643842718000277e-05  -4.9811579948088302e-07  1.7547638600881898e-06  -7.0658307627679285e-07  -4.9059646209263543e-07  5.7280698052291048e-08  5.7864722069986249e-08  2.2967594289906674e-07  -4.5081855506611344e-06  1.7630573476248116e-05  1.8139873624033496e-10  -5.1276684671720853e-10  2.5928346745202165e-09  -1.0176861678117377e-08  2.5862667136961037e-08  -4.0659967200066675e-08  3.8185978254941500e-08  -8.1519394019460546e-08  3.1656309790241073e-07  -7.1847878129172046e-07  6.1588715778969072e-07  2.8689373707812291e-06  -3.5685867032420504e-05  1.2635132759615319e-04  -1.7582901882809497e-04  1.8011323752291827e-04  8.4285751988731020e-04  -1.4021393615971716e-04  -1.3947535133318199e-03  -1.5387325435751167e-03  -8.8263381117542746e-04  1.2401802039621684e-03  1.9627001501579052e-03  2.8418861378207575e-03  3.6951227979929845e-03  4.3661466137245395e-03  4.8522713975144224e-03  5.1195061678605295e-03  5.0881953487081858e-03  4.6592521535478429e-03  3.8511639269833780e-03  3.2196701329329676e-03  3.2171582370015012e-03  3.4222182526001399e-03  1.1369276023772033e-03  -3.5271434962152533e-03  -1.3732163543476404e-03  1.0223414107001529e-03  2.0531570053150725e-03  8.9958110786716032e-05  -1.3655594394831716e-03  -2.2306604830987610e-04  4.5923925338676449e-04  -5.4384122142742216e-05  -1.9334735346725770e-05  2.0374952843552412e-06  1.2857686397573200e-05  -2.6823578761359120e-06  9.3916610694671445e-07  4.7348892342806371e-07  3.1261058545570880e-07  6.0171189634361001e-08  -8.1143113294733571e-08  -6.9676625907742680e-07  7.7372312620200022e-06  -2.4099854604011900e-05  1.9283727444295564e-05  9.1408051419936928e-05  -3.4748572541118367e-04  6.7032367089404660e-04  -6.1933253195499329e-04  -2.8531263694697430e-04  1.1542844324537696e-03  3.9065461387924967e-04  -1.1183560374141142e-03  -2.8738030752434585e-03  -2.9418425393465335e-05  2.5203199418913254e-03  3.1483544792781201e-03  3.4398669748596472e-03  4.1190231533732068e-03  4.7285598725827892e-03  5.0044595651902888e-03  4.9488065041830859e-03  4.6601268645325182e-03  4.1751967809798137e-03  3.4958686658146669e-03  2.6545129032211905e-03  2.0637482638024012e-03  1.4017967179084411e-03  7.1461710666822803e-04  -3.5077767870460003e-05  -2.4036337649241666e-03  -1.1952662098263238e-03  1.7877330011745883e-03  1.7437857623520410e-03  -1.3528308443969631e-03  -6.7276942489422986e-04  6.5655442323343750e-04  -3.4187035113760061e-05  -6.4777238711352707e-05  2.4460393066907635e-05  -3.1539587593670662e-06  -2.4844384505297122e-06  1.5404077513796452e-06  7.5211560696951257e-07  -2.0616141942429815e-07  -5.4372372077789023e-08  -4.3297445592228945e-07  5.1321924616640605e-06  -2.2872059432299540e-05  -5.2733929436131723e-10  1.3659387372118557e-09  -6.6711490726474568e-09  2.5649765158236464e-08  -6.6016351044104916e-08  1.0018915333925287e-07  -7.2743515808484088e-08  5.0851050049222143e-08  9.5646578883467858e-08  -1.3351064383450027e-06  1.2960672464124569e-06  3.3374459803061443e-06  7.3558694487981942e-06  -1.2221325543575859e-04  9.9004133007138834e-05  8.4592833869325267e-05  -6.3141322815726093e-04  -9.8810659573186910e-04  -9.2403305581409748e-04  1.1565679290952105e-03  3.0840976941296930e-03  4.9514920134319891e-03  6.6091866669140626e-03  9.5777603714225484e-03  1.3505180392976567e-02  1.7306196794119107e-02  2.0181416045355026e-02  2.1811820610221518e-02  2.2088797972904514e-02  2.1005327975066504e-02  1.8643608554386442e-02  1.5219564556273674e-02  1.1267197526341477e-02  7.7199507444056367e-03  5.1194657417053466e-03  3.1369057840944467e-03  3.0731704730600717e-03  1.4975407181345927e-03  -3.3924595460602686e-03  3.8613130321418559e-04  2.0624624314115824e-03  -5.3842748305487830e-05  -1.1664980869955034e-03  1.2509027672326088e-04  1.0213584813458587e-04  -1.4699113363226087e-05  -6.6939978056441382e-06  7.5165471499760790e-06  -3.3454130544352512e-06  -1.2610427023141962e-07  -6.5638198572923476e-07  -7.6573020285460863e-08  1.7611663145668824e-07  2.7585943627673689e-07  -7.0104396370625648e-06  4.2971610990417032e-05  -7.2709764997377793e-05  1.7264836269190167e-05  2.0681320454395033e-04  -6.3196064811425116e-04  1.1014578646173999e-03  2.1850862895967589e-04  -2.4886950523417954e-03  2.5048415899692115e-05  2.0690570432505442e-03  3.2894432322654750e-03  5.0299675153454319e-03  7.5114869139092889e-03  1.1007037888847054e-02  1.4930225723923501e-02  1.8313387018725483e-02  2.0624795081459153e-02  2.1673115778786965e-02  2.1392853971389601e-02  1.9790818934273126e-02  1.6967669698789441e-02  1.3231314574168020e-02  9.3958139371666562e-03  6.5459010593176045e-03  4.9752613798458491e-03  3.4589099430645861e-03  1.7672770674577545e-03  9.3900873574645093e-04  1.7728544282317888e-04  -2.1662191025722294e-03  -3.9551046447011814e-04  1.8784905249530676e-03  1.1532515006190654e-04  -9.6001277514573069e-04  2.7984319148520535e-04  9.0234856319687580e-05  -5.3173093065748495e-05  1.2244359501195862e-05  2.4639782871778407e-06  -2.6341989521231041e-06  -1.0499320577542547e-06  5.0749365256794889e-07  1.2406954447869306e-08  7.3311152166709381e-07  -6.2701390990347317e-06  2.7691408515457820e-05  1.2393158463809125e-09  -3.2975517637064863e-09  1.6000858103401828e-08  -6.2739059299031065e-08  1.6078015582947829e-07  -2.1850876301773444e-07  7.4156463426755797e-08  2.6243083280708587e-07  -1.4229334249169732e-06  8.7601582873626322e-06  -1.2730833290753587e-05  -8.9022995885540689e-06  6.3651808227169738e-05  2.1418274668049780e-04  6.0333760327787797e-04  -5.5071883644130181e-04  -1.1328804746679945e-03  1.6066889027479768e-03  3.7954714777123388e-03  7.1209931438893769e-03  1.6069561884198717e-02  4.0888086235702607e-02  8.9042583931821531e-02  1.4992373203967205e-01  2.0396048671691050e-01  2.4279027815504620e-01  2.6748536901853087e-01  2.8033578703739409e-01  2.8251269115470323e-01  2.7428130598854167e-01  2.5512937851503792e-01  2.2343330866604796e-01  1.7700482277303523e-01  1.1827588790388034e-01  6.2096698227520251e-02  2.6024906327230937e-02  1.0508593045425613e-02  5.1731929552856822e-03  3.1056221306620261e-03  2.4483398098242189e-03  -2.6352370694482448e-03  5.2398542548608390e-04  1.6316964632597545e-03  -5.9923929781375597e-04  -3.6941862870430996e-04  1.3801539406448697e-04  2.4186822438014903e-05  -7.0422818200208540e-06  7.0212182105103759e-06  -8.3182863515201650e-07  1.7082494726751868e-06  -1.0260097391083437e-07  -2.8376771913239505e-07  1.1285081604797282e-06  3.9330672355755364e-06  -5.4247079888538856e-05  1.5583970359915876e-04  -2.3050895425437280e-04  2.0156068852951011e-04  8.9481381913788984e-04  -2.0440138606383673e-03  7.4648131204948533e-04  2.4570727027506873e-03  5.0229395155511882e-03  1.0125208648286246e-02  2.5149391714621466e-02  6.0311258391200995e-02  1.1574377692828398e-01  1.7432337140159948e-01  2.2080833960702748e-01  2.5244209378121901e-01  2.7144247820420725e-01  2.7957077108911510e-01  2.7743272393123669e-01  2.6476330311611479e-01  2.4030544104116505e-01  2.0166825522376186e-01  1.4783197148605176e-01  8.7436053296209792e-02  4.0041417202310386e-02  1.5765012686716515e-02  7.1149387658515440e-03  4.4266512219139865e-03  2.6413714040374012e-03  1.4554883802948987e-03  -5.9681848419883678e-04  -1.4383163236765988e-03  9.9927776098675735e-04  9.0775531035942381e-04  -7.0530199551465517e-04  3.9701751004186402e-05  1.0911130508408163e-04  -3.5168667427065153e-05  8.3249177724642211e-07  3.9970888165666137e-06  1.4470298976606391e-06  -1.0096080605657732e-06  1.5729601890306788e-07  -1.1617346126245805e-06  7.9899408975192896e-06  -3.2111711774981678e-05  -2.5824153648415186e-09  6.7573963321993672e-09  -3.4753642919592860e-08  1.4326938713388013e-07  -3.6291373230732949e-07  4.6053368834478301e-07  3.5351478280313788e-07  -1.2031417808017867e-06  6.2525159807853120e-06  -2.5639264694601666e-05  4.8917678831199998e-05  -1.0020309606411828e-05  -6.8510383855894641e-05  1.0246891201715180e-04  -1.7968654337346655e-03  1.3784820345038068e-03  3.6620678498171721e-03  8.5310006935421876e-03  2.6137105916802100e-02  8.3767719370989271e-02  2.0419800775777264e-01  3.8684512765328666e-01  5.8622717035985483e-01  7.2768901097825067e-01  8.0155304478490619e-01  8.3721404136908673e-01  8.5494727637375156e-01  8.6305070210283963e-01  8.6435262244215982e-01  8.5930005876888005e-01  8.4645196928898569e-01  8.2086856476778169e-01  7.6928104722115564e-01  6.6510203740929830e-01  4.9069432799769752e-01  2.9325560893968589e-01  1.4099400882688159e-01  5.1613947942523136e-02  1.5813910298044617e-02  6.3741818195664933e-03  3.5381028603301908e-03  2.3096712253869315e-03  -2.3334227760336262e-03  1.2923155378081147e-03  5.0135333617219822e-04  -5.6220819199106174e-04  6.9181049971325404e-05  4.2085883852808082e-05  -1.0858615983969791e-05  2.0631581577068614e-06  -3.4286507673283414e-06  5.9561029063871442e-07  7.8278363342957760e-07  -1.7098337900567227e-06  1.1760489786877277e-05  5.5750523232013529e-05  -2.5415632253978656e-04  5.8949026297249341e-04  -8.2927280560435182e-04  -8.0595496404939088e-04  2.2319679692380857e-03  5.9964437579276848e-03  1.5234694031168911e-02  4.9999048997811657e-02  1.3739285912662180e-01  2.8719091144464354e-01  4.8332247744352325e-01  6.5935227782495953e-01  7.6575271427377889e-01  8.1853289324234679e-01  8.4454930470677358e-01  8.5751399883977719e-01  8.6258588812605896e-01  8.6128691005771263e-01  8.5316755894516305e-01  8.3531048464054070e-01  7.9919407937660070e-01  7.2423285825124661e-01  5.8141762385994689e-01  3.8224844964518523e-01  2.0135446767754919e-01  8.2462274058553928e-02  2.5748052287618558e-02  8.5914683580294929e-03  4.6217367286803031e-03  2.7287038373610146e-03  1.3128535900380222e-03  -1.4096788106268082e-03  -4.8390044853889831e-05  1.0348484841824857e-03  -3.9993439107261831e-04  -7.2691849059100357e-05  9.1002924856506274e-05  -9.1547026539626385e-06  -4.2003880949410187e-06  -1.2435989608687283e-06  1.6332190135675065e-06  -4.9447211111012057e-07  1.7737807386964729e-06  -1.0360759539832177e-05  3.6223639288634917e-05  4.9768434892222504e-09  -1.2479272068010018e-08  6.6872526419126349e-08  -2.8973260216173089e-07  8.0576808515927579e-07  -6.9537874064321766e-07  -1.3718677391720586e-06  6.6726900001916529e-06  -1.4383658508252311e-05  6.4064332578081206e-05  -1.4127292350336068e-04  2.0917666365942997e-04  -4.3613259987966076e-05  2.0493167942614075e-05  2.3541119585136039e-03  6.9936416810155696e-03  2.2754038812154726e-02  9.1176501853125091e-02  2.6947890206750741e-01  5.4626509435294679e-01  7.7777971560447468e-01  9.0240558366926971e-01  9.6033875278834591e-01  9.8400173354413911e-01  9.9264740570046450e-01  9.9587193621887260e-01  9.9719909366750537e-01  9.9773721001962390e-01  9.9780804565207704e-01  9.9745613362164420e-01  9.9652022744700808e-01  9.9438829078115043e-01  9.8906676442023278e-01  9.7467131647979255e-01  9.3759429917327053e-01  8.5482312115245063e-01  6.8777879168870149e-01  4.2178760547071187e-01  1.7867257557011162e-01  5.2264091112047648e-02  1.3718693722282703e-02  5.9270759485442670e-03  3.5468687564781083e-03  1.5817886771218805e-04  -5.9692378343657469e-04  1.0211519506103878e-03  -4.1586060257015127e-04  4.1001227006355175e-06  4.4772088235038502e-05  -5.5882277086245956e-06  6.5868136947701801e-06  -1.6206250259359172e-06  -2.3150398761363364e-06  7.5678361001232245e-06  -3.9428358688664121e-05  -7.1844795567710155e-06  3.5158128822871147e-04  -9.4049344694230015e-04  1.8845596850808450e-03  4.6254363285925769e-03  1.3249876168011517e-02  5.0988301541507533e-02  1.7473963743153859e-01  4.1461811415327104e-01  6.8130671545759913e-01  8.5097927665959083e-01  9.3556227876081444e-01  9.7373955184047367e-01  9.8865606022848262e-01  9.9416506844299501e-01  9.9635441776013034e-01  9.9730527172649874e-01  9.9765943622896003e-01  9.9758675415362685e-01  9.9704216939040380e-01  9.9569320879584611e-01  9.9239637929928304e-01  9.8353591336907709e-01  9.5936374092049148e-01  9.0057653365161117e-01  7.7474131184576522e-01  5.4222269258021971e-01  2.6657493922099035e-01  9.0032952707449640e-02  2.2527859055109675e-02  7.1895867622194624e-03  4.0037314506300211e-03  2.4756154877175729e-03  -5.3248606721388266e-04  -9.5097249914016704e-04  1.0149267105626226e-03  -1.7087259861648226e-04  -8.8558064287166819e-05  4.2777149545328331e-05  6.7916457253557556e-06  6.2510600196551593e-07  -9.7421014690397674e-07  7.0955786286739454e-07  -2.5281318346900545e-06  1.3489978494781039e-05  -4.0215826945198455e-05  -1.1042971013253960e-08  2.4141827347954262e-08  -1.1436620431584112e-07  5.6661949917465323e-07  -1.4677487556439368e-06  1.5364052837645298e-06  6.7028792301130663e-06  -1.7394475146694447e-05  3.8816434452076740e-05  -1.2533198297824