<?xml version="1.0"?>
<VTKFile type="UnstructuredGrid"  version="0.1"  >
<UnstructuredGrid>
<Piece  NumberOfPoints="11156" NumberOfCells="22000">
<Points>
<DataArray  type="Float64"  NumberOfComponents="3"  format="ascii">0 0 0  2 0 0  4 0 0  6 0 0  8 0 0  10 0 0  12 0 0  14 0 0  16 0 0  18 0 0  20 0 0  22 0 0  24 0 0  26 0 0  28 0 0  30 0 0  32 0 0  34 0 0  36 0 0  38 0 0  40 0 0  42 0 0  44 0 0  46 0 0  48 0 0  50 0 0  52 0 0  54 0 0  56 0 0  58 0 0  60 0 0  62 0 0  64 0 0  66 0 0  68 0 0  70 0 0  72 0 0  74 0 0  76 0 0  78 0 0  80 0 0  82 0 0  84 0 0  86 0 0  88 0 0  90 0 0  92 0 0  94 0 0  96 0 0  98 0 0  100 0 0  102 0 0  104 0 0  106 0 0  108 0 0  110 0 0  112 0 0  114 0 0  116 0 0  118 0 0  120 0 0  122 0 0  124 0 0  126 0 0  128 0 0  130 0 0  132 0 0  134 0 0  136 0 0  138 0 0  140 0 0  142 0 0  144 0 0  146 0 0  148 0 0  150 0 0  152 0 0  154 0 0  156 0 0  158 0 0  160 0 0  162 0 0  164 0 0  166 0 0  168 0 0  170 0 0  172 0 0  174 0 0  176 0 0  178 0 0  180 0 0  182 0 0  184 0 0  186 0 0  188 0 0  190 0 0  192 0 0  194 0 0  196 0 0  198 0 0  200 0 0  0 2 0  2 2 0  4 2 0  6 2 0  8 2 0  10 2 0  12 2 0  14 2 0  16 2 0  18 2 0  20 2 0  22 2 0  24 2 0  26 2 0  28 2 0  30 2 0  32 2 0  34 2 0  36 2 0  38 2 0  40 2 0  42 2 0  44 2 0  46 2 0  48 2 0  50 2 0  52 2 0  54 2 0  56 2 0  58 2 0  60 2 0  62 2 0  64 2 0  66 2 0  68 2 0  70 2 0  72 2 0  74 2 0  76 2 0  78 2 0  80 2 0  82 2 0  84 2 0  86 2 0  88 2 0  90 2 0  92 2 0  94 2 0  96 2 0  98 2 0  100 2 0  102 2 0  104 2 0  106 2 0  108 2 0  110 2 0  112 2 0  114 2 0  116 2 0  118 2 0  120 2 0  122 2 0  124 2 0  126 2 0  128 2 0  130 2 0  132 2 0  134 2 0  136 2 0  138 2 0  140 2 0  142 2 0  144 2 0  146 2 0  148 2 0  150 2 0  152 2 0  154 2 0  156 2 0  158 2 0  160 2 0  162 2 0  164 2 0  166 2 0  168 2 0  170 2 0  172 2 0  174 2 0  176 2 0  178 2 0  180 2 0  182 2 0  184 2 0  186 2 0  188 2 0  190 2 0  192 2 0  194 2 0  196 2 0  198 2 0  200 2 0  0 4 0  2 4 0  4 4 0  6 4 0  8 4 0  10 4 0  12 4 0  14 4 0  16 4 0  18 4 0  20 4 0  22 4 0  24 4 0  26 4 0  28 4 0  30 4 0  32 4 0  34 4 0  36 4 0  38 4 0  40 4 0  42 4 0  44 4 0  46 4 0  48 4 0  50 4 0  52 4 0  54 4 0  56 4 0  58 4 0  60 4 0  62 4 0  64 4 0  66 4 0  68 4 0  70 4 0  72 4 0  74 4 0  76 4 0  78 4 0  80 4 0  82 4 0  84 4 0  86 4 0  88 4 0  90 4 0  92 4 0  94 4 0  96 4 0  98 4 0  100 4 0  102 4 0  104 4 0  106 4 0  108 4 0  110 4 0  112 4 0  114 4 0  116 4 0  118 4 0  120 4 0  122 4 0  124 4 0  126 4 0  128 4 0  130 4 0  132 4 0  134 4 0  136 4 0  138 4 0  140 4 0  142 4 0  144 4 0  146 4 0  148 4 0  150 4 0  152 4 0  154 4 0  156 4 0  158 4 0  160 4 0  162 4 0  164 4 0  166 4 0  168 4 0  170 4 0  172 4 0  174 4 0  176 4 0  178 4 0  180 4 0  182 4 0  184 4 0  186 4 0  188 4 0  190 4 0  192 4 0  194 4 0  196 4 0  198 4 0  200 4 0  0 6 0  2 6 0  4 6 0  6 6 0  8 6 0  10 6 0  12 6 0  14 6 0  16 6 0  18 6 0  20 6 0  22 6 0  24 6 0  26 6 0  28 6 0  30 6 0  32 6 0  34 6 0  36 6 0  38 6 0  40 6 0  42 6 0  44 6 0  46 6 0  48 6 0  50 6 0  52 6 0  54 6 0  56 6 0  58 6 0  60 6 0  62 6 0  64 6 0  66 6 0  68 6 0  70 6 0  72 6 0  74 6 0  76 6 0  78 6 0  80 6 0  82 6 0  84 6 0  86 6 0  88 6 0  90 6 0  92 6 0  94 6 0  96 6 0  98 6 0  100 6 0  102 6 0  104 6 0  106 6 0  108 6 0  110 6 0  112 6 0  114 6 0  116 6 0  118 6 0  120 6 0  122 6 0  124 6 0  126 6 0  128 6 0  130 6 0  132 6 0  134 6 0  136 6 0  138 6 0  140 6 0  142 6 0  144 6 0  146 6 0  148 6 0  150 6 0  152 6 0  154 6 0  156 6 0  158 6 0  160 6 0  162 6 0  164 6 0  166 6 0  168 6 0  170 6 0  172 6 0  174 6 0  176 6 0  178 6 0  180 6 0  182 6 0  184 6 0  186 6 0  188 6 0  190 6 0  192 6 0  194 6 0  196 6 0  198 6 0  200 6 0  0 8 0  2 8 0  4 8 0  6 8 0  8 8 0  10 8 0  12 8 0  14 8 0  16 8 0  18 8 0  20 8 0  22 8 0  24 8 0  26 8 0  28 8 0  30 8 0  32 8 0  34 8 0  36 8 0  38 8 0  40 8 0  42 8 0  44 8 0  46 8 0  48 8 0  50 8 0  52 8 0  54 8 0  56 8 0  58 8 0  60 8 0  62 8 0  64 8 0  66 8 0  68 8 0  70 8 0  72 8 0  74 8 0  76 8 0  78 8 0  80 8 0  82 8 0  84 8 0  86 8 0  88 8 0  90 8 0  92 8 0  94 8 0  96 8 0  98 8 0  100 8 0  102 8 0  104 8 0  106 8 0  108 8 0  110 8 0  112 8 0  114 8 0  116 8 0  118 8 0  120 8 0  122 8 0  124 8 0  126 8 0  128 8 0  130 8 0  132 8 0  134 8 0  136 8 0  138 8 0  140 8 0  142 8 0  144 8 0  146 8 0  148 8 0  150 8 0  152 8 0  154 8 0  156 8 0  158 8 0  160 8 0  162 8 0  164 8 0  166 8 0  168 8 0  170 8 0  172 8 0  174 8 0  176 8 0  178 8 0  180 8 0  182 8 0  184 8 0  186 8 0  188 8 0  190 8 0  192 8 0  194 8 0  196 8 0  198 8 0  200 8 0  0 10 0  2 10 0  4 10 0  6 10 0  8 10 0  10 10 0  12 10 0  14 10 0  16 10 0  18 10 0  20 10 0  22 10 0  24 10 0  26 10 0  28 10 0  30 10 0  32 10 0  34 10 0  36 10 0  38 10 0  40 10 0  42 10 0  44 10 0  46 10 0  48 10 0  50 10 0  52 10 0  54 10 0  56 10 0  58 10 0  60 10 0  62 10 0  64 10 0  66 10 0  68 10 0  70 10 0  72 10 0  74 10 0  76 10 0  78 10 0  80 10 0  82 10 0  84 10 0  86 10 0  88 10 0  90 10 0  92 10 0  94 10 0  96 10 0  98 10 0  100 10 0  102 10 0  104 10 0  106 10 0  108 10 0  110 10 0  112 10 0  114 10 0  116 10 0  118 10 0  120 10 0  122 10 0  124 10 0  126 10 0  128 10 0  130 10 0  132 10 0  134 10 0  136 10 0  138 10 0  140 10 0  142 10 0  144 10 0  146 10 0  148 10 0  150 10 0  152 10 0  154 10 0  156 10 0  158 10 0  160 10 0  162 10 0  164 10 0  166 10 0  168 10 0  170 10 0  172 10 0  174 10 0  176 10 0  178 10 0  180 10 0  182 10 0  184 10 0  186 10 0  188 10 0  190 10 0  192 10 0  194 10 0  196 10 0  198 10 0  200 10 0  0 12 0  2 12 0  4 12 0  6 12 0  8 12 0  10 12 0  12 12 0  14 12 0  16 12 0  18 12 0  20 12 0  22 12 0  24 12 0  26 12 0  28 12 0  30 12 0  32 12 0  34 12 0  36 12 0  38 12 0  40 12 0  42 12 0  44 12 0  46 12 0  48 12 0  50 12 0  52 12 0  54 12 0  56 12 0  58 12 0  60 12 0  62 12 0  64 12 0  66 12 0  68 12 0  70 12 0  72 12 0  74 12 0  76 12 0  78 12 0  80 12 0  82 12 0  84 12 0  86 12 0  88 12 0  90 12 0  92 12 0  94 12 0  96 12 0  98 12 0  100 12 0  102 12 0  104 12 0  106 12 0  108 12 0  110 12 0  112 12 0  114 12 0  116 12 0  118 12 0  120 12 0  122 12 0  124 12 0  126 12 0  128 12 0  130 12 0  132 12 0  134 12 0  136 12 0  138 12 0  140 12 0  142 12 0  144 12 0  146 12 0  148 12 0  150 12 0  152 12 0  154 12 0  156 12 0  158 12 0  160 12 0  162 12 0  164 12 0  166 12 0  168 12 0  170 12 0  172 12 0  174 12 0  176 12 0  178 12 0  180 12 0  182 12 0  184 12 0  186 12 0  188 12 0  190 12 0  192 12 0  194 12 0  196 12 0  198 12 0  200 12 0  0 14 0  2 14 0  4 14 0  6 14 0  8 14 0  10 14 0  12 14 0  14 14 0  16 14 0  18 14 0  20 14 0  22 14 0  24 14 0  26 14 0  28 14 0  30 14 0  32 14 0  34 14 0  36 14 0  38 14 0  40 14 0  42 14 0  44 14 0  46 14 0  48 14 0  50 14 0  52 14 0  54 14 0  56 14 0  58 14 0  60 14 0  62 14 0  64 14 0  66 14 0  68 14 0  70 14 0  72 14 0  74 14 0  76 14 0  78 14 0  80 14 0  82 14 0  84 14 0  86 14 0  88 14 0  90 14 0  92 14 0  94 14 0  96 14 0  98 14 0  100 14 0  102 14 0  104 14 0  106 14 0  108 14 0  110 14 0  112 14 0  114 14 0  116 14 0  118 14 0  120 14 0  122 14 0  124 14 0  126 14 0  128 14 0  130 14 0  132 14 0  134 14 0  136 14 0  138 14 0  140 14 0  142 14 0  144 14 0  146 14 0  148 14 0  150 14 0  152 14 0  154 14 0  156 14 0  158 14 0  160 14 0  162 14 0  164 14 0  166 14 0  168 14 0  170 14 0  172 14 0  174 14 0  176 14 0  178 14 0  180 14 0  182 14 0  184 14 0  186 14 0  188 14 0  190 14 0  192 14 0  194 14 0  196 14 0  198 14 0  200 14 0  0 16 0  2 16 0  4 16 0  6 16 0  8 16 0  10 16 0  12 16 0  14 16 0  16 16 0  18 16 0  20 16 0  22 16 0  24 16 0  26 16 0  28 16 0  30 16 0  32 16 0  34 16 0  36 16 0  38 16 0  40 16 0  42 16 0  44 16 0  46 16 0  48 16 0  50 16 0  52 16 0  54 16 0  56 16 0  58 16 0  60 16 0  62 16 0  64 16 0  66 16 0  68 16 0  70 16 0  72 16 0  74 16 0  76 16 0  78 16 0  80 16 0  82 16 0  84 16 0  86 16 0  88 16 0  90 16 0  92 16 0  94 16 0  96 16 0  98 16 0  100 16 0  102 16 0  104 16 0  106 16 0  108 16 0  110 16 0  112 16 0  114 16 0  116 16 0  118 16 0  120 16 0  122 16 0  124 16 0  126 16 0  128 16 0  130 16 0  132 16 0  134 16 0  136 16 0  138 16 0  140 16 0  142 16 0  144 16 0  146 16 0  148 16 0  150 16 0  152 16 0  154 16 0  156 16 0  158 16 0  160 16 0  162 16 0  164 16 0  166 16 0  168 16 0  170 16 0  172 16 0  174 16 0  176 16 0  178 16 0  180 16 0  182 16 0  184 16 0  186 16 0  188 16 0  190 16 0  192 16 0  194 16 0  196 16 0  198 16 0  200 16 0  0 18 0  2 18 0  4 18 0  6 18 0  8 18 0  10 18 0  12 18 0  14 18 0  16 18 0  18 18 0  20 18 0  22 18 0  24 18 0  26 18 0  28 18 0  30 18 0  32 18 0  34 18 0  36 18 0  38 18 0  40 18 0  42 18 0  44 18 0  46 18 0  48 18 0  50 18 0  52 18 0  54 18 0  56 18 0  58 18 0  60 18 0  62 18 0  64 18 0  66 18 0  68 18 0  70 18 0  72 18 0  74 18 0  76 18 0  78 18 0  80 18 0  82 18 0  84 18 0  86 18 0  88 18 0  90 18 0  92 18 0  94 18 0  96 18 0  98 18 0  100 18 0  102 18 0  104 18 0  106 18 0  108 18 0  110 18 0  112 18 0  114 18 0  116 18 0  118 18 0  120 18 0  122 18 0  124 18 0  126 18 0  128 18 0  130 18 0  132 18 0  134 18 0  136 18 0  138 18 0  140 18 0  142 18 0  144 18 0  146 18 0  148 18 0  150 18 0  152 18 0  154 18 0  156 18 0  158 18 0  160 18 0  162 18 0  164 18 0  166 18 0  168 18 0  170 18 0  172 18 0  174 18 0  176 18 0  178 18 0  180 18 0  182 18 0  184 18 0  186 18 0  188 18 0  190 18 0  192 18 0  194 18 0  196 18 0  198 18 0  200 18 0  0 20 0  2 20 0  4 20 0  6 20 0  8 20 0  10 20 0  12 20 0  14 20 0  16 20 0  18 20 0  20 20 0  22 20 0  24 20 0  26 20 0  28 20 0  30 20 0  32 20 0  34 20 0  36 20 0  38 20 0  40 20 0  42 20 0  44 20 0  46 20 0  48 20 0  50 20 0  52 20 0  54 20 0  56 20 0  58 20 0  60 20 0  62 20 0  64 20 0  66 20 0  68 20 0  70 20 0  72 20 0  74 20 0  76 20 0  78 20 0  80 20 0  82 20 0  84 20 0  86 20 0  88 20 0  90 20 0  92 20 0  94 20 0  96 20 0  98 20 0  100 20 0  102 20 0  104 20 0  106 20 0  108 20 0  110 20 0  112 20 0  114 20 0  116 20 0  118 20 0  120 20 0  122 20 0  124 20 0  126 20 0  128 20 0  130 20 0  132 20 0  134 20 0  136 20 0  138 20 0  140 20 0  142 20 0  144 20 0  146 20 0  148 20 0  150 20 0  152 20 0  154 20 0  156 20 0
[...]
<PointData  Scalars="C"> 
<DataArray  type="Float64"  Name="C"  format="ascii">-3.6247938663557828e-11  1.6948192564801354e-10  -8.4870583888040095e-10  3.0286006419073168e-09  -8.1324331133805434e-09  1.8183904815098612e-08  -3.6307048475217536e-08  4.4326534191127500e-08  8.4012241879056152e-08  -5.2208641428761523e-07  7.8042889091436122e-07  5.3863387101663982e-07  -3.6256677551297730e-06  5.8507923702407344e-06  -3.7212353728766275e-06  1.4979519311507142e-05  -7.0896976949110145e-05  9.0418593602722065e-06  3.4819723311549150e-04  2.6234054854845429e-04  -5.6455045391677334e-04  -1.3582955690638141e-03  -1.9719119205832327e-03  -1.7471970174352128e-03  -3.8710820368767951e-04  7.9908739671625802e-04  1.1346165835937046e-03  7.5097000476160474e-04  2.6055693334027589e-04  -7.7829351713031643e-04  -1.2948827415098217e-03  -1.6920716303787488e-03  -2.1170632040716942e-03  -2.3909968788352700e-03  -1.4716325610717397e-03  9.2537554668474238e-04  1.5247393847448827e-03  8.7315338042987705e-04  -2.5007224237806814e-04  -2.1977216799328833e-04  -1.1867419452387813e-04  -1.3788983409495561e-05  1.4321314475781321e-04  -3.2687648087644539e-05  -3.6678132451662617e-05  1.1913765850447788e-05  3.0671605224521870e-06  -1.5081544714150641e-06  -1.4083462566911126e-07  1.2552497835639575e-08  -7.0597153459400435e-08  -7.7874960226101047e-08  -7.1109260176304874e-08  7.8040429681344406e-07  -2.2251180953666384e-06  -6.2292614609650477e-07  2.6149159615783766e-05  -1.0235405212347348e-04  2.1715575661966096e-04  -1.9165071619035393e-04  -2.3220569757667468e-04  7.3025527004456849e-04  -1.6857029818955201e-04  -1.0937357911373696e-03  2.0166852190241244e-04  1.7149403940256423e-03  6.4716214762724914e-04  -1.6917078117867918e-03  -1.8206877872818548e-03  -1.6350592071333627e-03  -1.4282330638006621e-03  -9.3392086809420359e-04  1.4584196106372913e-04  1.1162862749566817e-03  1.6165141544093589e-03  1.2234451758235993e-03  -1.2644788930063109e-04  -2.0709918729092868e-03  -2.6244507199058974e-03  -2.5490281053131745e-03  -2.0232508513585265e-03  6.5773584519437890e-04  2.2487044197668149e-03  1.2441916866453146e-03  -1.0156136574467956e-03  -1.0103294634697081e-03  4.3867041123693817e-04  2.5413051303473756e-04  -1.4678593529926515e-04  -2.3300656355430168e-05  2.1239590754783743e-05  -4.5419917464914403e-07  -1.7006636959639106e-06  5.3256603372520327e-07  -7.4406663767721501e-08  -2.3406852070133593e-07  -6.1341604267264174e-08  -5.9164941565434645e-08  1.1122207787373546e-06  -8.1484235510073219e-06  1.1873695688520825e-05  -1.7609885280906403e-11  4.2680525929781246e-13  2.0234974335736270e-10  -1.0537295166166385e-09  2.7931101076394887e-09  -5.9910478797238610e-09  2.2197029384284465e-08  -1.0039388926095951e-07  2.5175922251078475e-07  3.9106494483639274e-08  -2.7848974837314105e-06  1.2644188770679805e-05  -3.7591728154962324e-05  7.2223601907136698e-05  -5.2615951954560980e-05  -1.3426319372244303e-04  4.0950292928471793e-04  -1.0923451441698956e-04  -1.2122330248939093e-03  -2.5807576667645542e-04  1.8756187595468422e-03  2.2726992461048418e-03  1.9258979576368580e-03  9.0722460675284218e-04  -4.2146440233659116e-04  -1.1620553070563972e-03  -1.3486886299620992e-03  -6.2023123167449725e-04  4.1681922921231934e-04  1.5626177463205914e-03  1.9866394911220073e-03  2.0254164876221154e-03  2.1432666286283451e-03  1.6942047506228093e-03  -6.9388097373087750e-05  -1.6286650552685420e-03  -1.7026294134952994e-03  -4.4547689053886329e-05  1.2803252112403797e-03  4.2183381692822801e-04  -5.7727982037359066e-04  2.8380704541638032e-05  5.9785021045030123e-05  1.6070907911807215e-05  6.4351927242120921e-06  -1.1771155199666725e-05  2.3317970194562337e-06  9.8165354758990361e-07  -1.5796985335039093e-07  7.4092638261333961e-08  1.1977809460820150e-07  4.6074019416755207e-08  3.3407205375012034e-10  -6.7648639137640056e-07  2.9434821036850166e-06  -2.0722941206673886e-06  -2.5248847940274608e-05  1.2329355247053458e-04  -2.9908558082674649e-04  3.4824652840995850e-04  1.8176831375968104e-04  -9.1838411875619559e-04  5.5260539091537848e-04  1.1111389894244551e-03  -5.2316493442699640e-04  -1.4560487437446879e-03  -7.8164015658831112e-04  1.0336963576801804e-03  1.6863009403510227e-03  1.7043169209766764e-03  1.7190160332775915e-03  1.4529019310494397e-03  4.3114579784239390e-04  -6.4108799464620799e-04  -1.3926596095620348e-03  -1.3052747906674134e-03  -8.4406901950124895e-04  9.0101193178324828e-04  2.1882269753675243e-03  2.5459099947794067e-03  3.1106720878378651e-03  6.3115250386107315e-04  -2.1913194800228658e-03  -1.9399507162121297e-03  1.0083976784630415e-03  1.3966717008949768e-03  -5.5233759096119791e-04  -3.6899094824642873e-04  1.9253421192573126e-04  1.4011797975152825e-05  -2.6740326496591754e-05  4.2661687476739580e-06  1.5067785218938099e-06  -9.2380867704179946e-07  2.5853112795803284e-07  2.9010805190346119e-07  2.0838546073242042e-08  -1.0571210865254348e-07  -1.3500015063252971e-08  4.0755008150031572e-06  -1.2160465431121285e-05  -7.5790545018542212e-11  2.1970224033918911e-10  -1.1172520841665346e-09  4.1473915165925265e-09  -1.0055071009722003e-08  1.4767741565852251e-08  -1.9355854764305318e-08  8.6769746992138976e-08  -4.0535007626114123e-07  9.5990405106439429e-07  -4.1817238677552369e-07  -7.0882705898507780e-06  3.9232775880900177e-05  -1.1976140158706771e-04  1.6658829807702409e-04  -3.5509255719073360e-05  -6.2520720658494297e-04  7.0748714620546952e-04  1.6942357165678288e-03  6.4384762213564318e-05  -1.8759675094363422e-03  -2.5391965142825493e-03  -1.9282798338304858e-03  -9.6147248066698983e-04  -9.2249942408299866e-05  7.1404285468475018e-04  1.3608361604403412e-03  1.4130951525795810e-03  8.4289849923566119e-04  -7.0671827199809533e-04  -2.5221292465594644e-03  -2.8834569612428496e-03  -2.3213861942970771e-03  -8.5381747752789785e-04  7.3506896117897383e-04  2.0913018105757014e-03  1.4099851826169371e-03  -6.3633013481935344e-04  -1.4747768025680146e-03  -4.7092892111784906e-04  9.4403174336872662e-04  1.0413015129557761e-04  -1.8731365294504811e-04  3.4237337536897844e-05  5.7679711702099277e-06  1.4074798559371575e-05  -6.4638534371456961e-06  1.9255951623365551e-07  1.0578406514851536e-07  -2.6262333153860529e-07  -2.0409300134509012e-07  -4.1210038064579991e-08  1.8674771503159785e-08  9.1746310366695575e-07  -5.4735439487361292e-06  1.1135978687961716e-05  1.5053501397089757e-05  -1.3244086904884919e-04  3.8182490472505020e-04  -5.8924539434621981e-04  2.1107283362588181e-04  6.9666592288784412e-04  -9.2696349299330400e-04  -4.6437651498793290e-04  6.5934425201973523e-04  1.0955297537101846e-03  7.1323604858844144e-04  -9.2095093007554764e-04  -2.2282752831626214e-03  -2.8368027860219956e-03  -2.3485997433446413e-03  -9.2581894148216178e-04  3.3512769984429602e-04  1.0086784142226764e-03  1.2403948542264373e-03  8.2192638312381301e-04  4.4170499740905900e-04  -6.2199154051781021e-04  -1.8214365679681140e-03  -2.1663156106481079e-03  -2.7268831465942301e-03  -8.5550189226064974e-04  2.1963639639430679e-03  2.4426286799839312e-03  -9.6193526405147830e-04  -1.8540768838079583e-03  8.2724513286663544e-04  6.5322118870104920e-04  -3.4097534937522654e-04  -1.3155061551665227e-05  4.1438819265168034e-05  -1.1696568073600062e-05  -5.9647157031384193e-07  1.8209439279388736e-06  -7.1014810344311014e-07  -5.0131577721810900e-07  5.6910051715588321e-08  5.4600602565364071e-08  2.4589644981472545e-07  -4.5737954678431001e-06  1.7770169842524323e-05  2.0676845648733308e-10  -5.6376627370824101e-10  2.7412570224639238e-09  -1.0484332978300366e-08  2.6139268598152469e-08  -4.0246200776529233e-08  3.5440359133153212e-08  -7.1569684522831712e-08  3.0591426203597054e-07  -8.4234216376522219e-07  1.2530503031748322e-06  1.2252001263450352e-06  -3.4557346059340094e-05  1.3462509922871266e-04  -2.0253913996264242e-04  2.3628310250305574e-04  8.4076047897312480e-04  -2.5137316690895865e-04  -1.3937729472462538e-03  -1.4554716850308470e-03  -8.2160948708178414e-04  1.1883189834214405e-03  1.9487935706557712e-03  2.8559997786501055e-03  3.6870010649492041e-03  4.3257031391393938e-03  4.7862268023531069e-03  5.0366702394654154e-03  5.0004599917664507e-03  4.5712296780536744e-03  3.7895701450971677e-03  3.2008171019705617e-03  3.2299848458845364e-03  3.3942513273475718e-03  9.0973781132063685e-04  -3.5048075165048185e-03  -1.1082154480611497e-03  1.0765833753036385e-03  1.9106836156382457e-03  -1.2654683324687342e-05  -1.3196138876389442e-03  -1.6876438419746070e-04  4.5940121932513256e-04  -7.0043468359625761e-05  -1.3541360513161670e-05  1.6675077625924186e-06  1.3017280383843465e-05  -2.7335456812441769e-06  1.0093100521147131e-06  4.7875770982809200e-07  3.0685534198110860e-07  5.7035654897662030e-08  -6.3336992775073400e-08  -7.5446733999485548e-07  8.0146720474688239e-06  -2.4779335578717590e-05  1.9351999918146138e-05  9.4996254083151000e-05  -3.5299801237536059e-04  6.6585912648432115e-04  -6.0920761134077798e-04  -2.7282523197189095e-04  1.0539790651979662e-03  3.9911560323543786e-04  -9.6586000679282338e-04  -2.8213497934132343e-03  -1.8189158964399427e-04  2.4551965541222448e-03  3.1448355382332686e-03  3.4086912271658215e-03  4.0430880895846013e-03  4.6372583400149311e-03  4.9116424810292953e-03  4.8633010924803025e-03  4.5974030976187324e-03  4.1432413426043596e-03  3.5034769931944873e-03  2.6797571720235253e-03  2.0379792840436008e-03  1.3542591654740522e-03  6.0431174659585855e-04  1.0274152598640200e-04  -2.2459769842883754e-03  -1.3142673498390323e-03  1.6361421651624509e-03  1.8415911468842661e-03  -1.2704425343370289e-03  -7.4393162469700558e-04  6.6286735919335576e-04  -2.3806787948282006e-05  -6.8578563449659454e-05  2.4575869329537224e-05  -2.9240580777176859e-06  -2.6449053426912225e-06  1.5388077573729654e-06  7.7283876444718993e-07  -2.0487014939573765e-07  -4.6120570788235098e-08  -4.6766823604952698e-07  5.2514055848347494e-06  -2.3007578767304639e-05  -6.0227391625190694e-10  1.5258078148531868e-09  -7.1817474194390239e-09  2.6838139274317248e-08  -6.7545330443547181e-08  1.0040191758632720e-07  -7.0319106635488199e-08  3.8876084744252881e-08  1.4400964737936392e-07  -1.3647393342948333e-06  6.0246901062490171e-07  5.6768322606488452e-06  2.9348848669242616e-06  -1.3103469151591059e-04  1.2590409920996227e-04  3.3421110079479539e-05  -6.3345814914320976e-04  -9.1592632839902560e-04  -9.5983992199616408e-04  1.1410289781699184e-03  3.0808992260917996e-03  4.8943341717829283e-03  6.5040771244579557e-03  9.3970327626417324e-03  1.3243867397003003e-02  1.6974208233865008e-02  1.9788888671491180e-02  2.1383069348004997e-02  2.1664077940885020e-02  2.0629068644885180e-02  1.8346911432312502e-02  1.5013077223119739e-02  1.1138726066864509e-02  7.6384910348237149e-03  5.0488009502939052e-03  3.1476267044613089e-03  3.0864872944178791e-03  1.3645280481657781e-03  -3.2880611070714599e-03  5.2040645026517362e-04  1.9567070129962835e-03  -1.1959145143230744e-04  -1.1339324047675927e-03  1.4418672471319972e-04  9.1343839034493856e-05  -1.3759278668345615e-05  -6.3464076732153066e-06  7.5495198743547876e-06  -3.4704103472350777e-06  -7.6326972167769602e-08  -6.4886982581906843e-07  -7.3990816242849916e-08  1.4737715573007720e-07  3.5073686467809311e-07  -7.0691414480066223e-06  4.3649641153883303e-05  -7.3941735542495905e-05  1.7963584569343971e-05  2.0624758681988905e-04  -6.2179352845200561e-04  1.0512004219271976e-03  2.4671020481909482e-04  -2.4038710249279717e-03  -4.8942262136491977e-05  2.0651055940455834e-03  3.2871951435018490e-03  4.9645749030507776e-03  7.4219371987389827e-03  1.0866422695488601e-02  1.4712157064740591e-02  1.8006660803626399e-02  2.0240288943259372e-02  2.1242424335832209e-02  2.0958984231382021e-02  1.9393183366306407e-02  1.6630363436482044e-02  1.2963658127356730e-02  9.2083185030354311e-03  6.4357487516004223e-03  4.9187455118542972e-03  3.4739477600148555e-03  1.7933094327771308e-03  8.3423539436170877e-04  2.3265198186008516e-04  -2.0666225528353050e-03  -4.9604512877573690e-04  1.8307869554401157e-03  2.0172079343251401e-04  -9.7249185544861529e-04  2.6798242573238521e-04  9.8046446012884126e-05  -5.4334303183107789e-05  1.1839996378282435e-05  2.8365887608882250e-06  -2.6217290897946937e-06  -1.0903612652762697e-06  5.0329824726309098e-07  -5.1638430874793620e-09  7.9741231819362367e-07  -6.4857626448976299e-06  2.7770573286867905e-05  1.4319230154560022e-09  -3.7360023163495063e-09  1.7489006173232466e-08  -6.6401956869054957e-08  1.6557643304523276e-07  -2.1781350222519238e-07  6.4929204215596855e-08  2.7882546292341601e-07  -1.5549876841881118e-06  9.1160442502201403e-06  -1.2399254518505524e-05  -1.2125998938219000e-05  7.3262199307034314e-05  2.2185906288021552e-04  5.9318745018757581e-04  -5.0592110667418955e-04  -1.1556233998557812e-03  1.5912195761253471e-03  3.7490697732027352e-03  7.0040408057471023e-03  1.5685042890049933e-02  3.9852468947663991e-02  8.7177237006252545e-02  1.4760655625844585e-01  2.0153990831771709e-01  2.4025741174194756e-01  2.6476641149729313e-01  2.7748904799395702e-01  2.7972582447590011e-01  2.7178533904591479e-01  2.5310406677307573e-01  2.2195314330640306e-01  1.7605163338103300e-01  1.1778711636034686e-01  6.1953747828311277e-02  2.6035709123291610e-02  1.0531880128788994e-02  5.1874966973880802e-03  3.1586699004963756e-03  2.3809638165372929e-03  -2.5628751918847954e-03  5.9023554248851140e-04  1.5526397643381355e-03  -6.2084469595358757e-04  -3.4887250954475504e-04  1.3341398035928567e-04  2.3593428193071579e-05  -6.2393764350663584e-06  6.9967749092401847e-06  -1.0380056136387276e-06  1.7366170895224839e-06  -1.1767339997383337e-07  -2.5566739084654995e-07  1.0162606413013707e-06  3.7430311879073173e-06  -5.4014729015060194e-05  1.5774307514005559e-04  -2.3601982794910065e-04  2.0804409721056696e-04  8.8955456804715042e-04  -2.0030825646674029e-03  7.2106240022958424e-04  2.5041372542711562e-03  5.0318212459145575e-03  1.0135330658142540e-02  2.5108797167286086e-02  6.0058454514248939e-02  1.1510151162525614e-01  1.7321956519718570e-01  2.1920804565607990e-01  2.5032785220070075e-01  2.6888075191887062e-01  2.7673173134667567e-01  2.7453707637875036e-01  2.6198826320191132e-01  2.3770006155314027e-01  1.9915506038265754e-01  1.4541688348266296e-01  8.5501807275627534e-02  3.8978433531458218e-02  1.5373709450836770e-02  6.9903442633206889e-03  4.3885388960029125e-03  2.6630671380090086e-03  1.3765927290296191e-03  -5.1815874564749786e-04  -1.4248561334657011e-03  9.2218116873119481e-04  9.3771723460975309e-04  -6.9679326241086617e-04  2.8574778937737846e-05  1.1268107443628461e-04  -3.4864130173908433e-05  4.7565549073777101e-08  3.9915222816423437e-06  1.5244884926300332e-06  -9.9624380911665007e-07  1.9030040258004954e-07  -1.2691959086689178e-06  8.3491535068891112e-06  -3.2079139806233250e-05  -3.0301939009678434e-09  7.8181440736271169e-09  -3.8579439979356079e-08  1.5321190026356424e-07  -3.7461206632910022e-07  4.5028608275196321e-07  4.1245585917027431e-07  -1.2762907949831984e-06  6.5887275125334944e-06  -2.6856294633558292e-05  4.9173961807580681e-05  -4.5869382644877444e-06  -7.8469360752730731e-05  9.8205733778300761e-05  -1.7945240454670147e-03  1.3508566695405542e-03  3.6116811439756160e-03  8.3726009049338752e-03  2.5477546091587429e-02  8.1839821142422220e-02  2.0041854466180595e-01  3.8117722844820179e-01  5.8058847596388452e-01  7.2382635365968917e-01  7.9905097938055214e-01  8.3527608701740241e-01  8.5317628382699862e-01  8.6132847895088360e-01  8.6268679835319584e-01  8.5774071990354650e-01  8.4504133677971671e-01  8.1960978406288909e-01  7.6814878497506411e-01  6.6417241133694704e-01  4.9028772884049182e-01  2.9349049271079952e-01  1.4145219321387958e-01  5.1917319579001142e-02  1.5926336585248183e-02  6.4086675997503647e-03  3.5922360909698488e-03  2.3149542840609806e-03  -2.2614784495567997e-03  1.2890487818644511e-03  4.5637005771874655e-04  -5.5052125451551294e-04  7.0896451324380504e-05  4.0183953668283481e-05  -9.9075208737407373e-06  2.4622140748766566e-06  -3.5788729732441647e-06  6.6851374543141646e-07  7.7744924915776930e-07  -1.5360911982899316e-06  1.2377851848071381e-05  5.3786835729438930e-05  -2.5360373429332095e-04  6.0423610427057283e-04  -8.4661773790634511e-04  -7.6042490258124693e-04  2.2734961591202767e-03  6.0378028850244427e-03  1.5337054740596394e-02  5.0242320839712001e-02  1.3768136587037033e-01  2.8708749567223574e-01  4.8245974217231336e-01  6.5804334004876019e-01  7.6438922441480128e-01  8.1713908862958051e-01  8.4304982647476556e-01  8.5588663579886937e-01  8.6086058155394252e-01  8.5950591890628891e-01  8.5132980469623820e-01  8.3328217097245805e-01  7.9654660557683388e-01  7.2012813133711562e-01  5.7547053302243389e-01  3.7635166398966508e-01  1.9745829502224588e-01  8.0488149971870149e-02  2.5080046391801943e-02  8.4332669479538196e-03  4.5702153876232719e-03  2.7135771505432554e-03  1.2731615594759496e-03  -1.3315261996729218e-03  -9.7088456342703239e-05  1.0275693057696968e-03  -3.8528334764596246e-04  -8.0121659218259801e-05  9.1308528496748074e-05  -7.6041118390779694e-06  -4.2836203598492511e-06  -1.3581869053328594e-06  1.5948846598540391e-06  -5.4441813128982942e-07  1.9390862377793052e-06  -1.0911866859721082e-05  3.6022987959881868e-05  5.9424248836585252e-09  -1.4813701718455606e-08  7.5825223872393253e-08  -3.1355151834175249e-07  8.3474716839097593e-07  -6.3981425069360544e-07  -1.5957628172227503e-06  7.0161876402580019e-06  -1.5239208842938170e-05  6.7046636173267679e-05  -1.4352815939144790e-04  2.0523638168072671e-04  -3.2073673020146730e-05  2.6500458308703929e-05  2.3113967263155540e-03  6.8652008409550878e-03  2.2169259104408208e-02  8.8952702843910894e-02  2.6459294284203888e-01  5.4015389882025866e-01  7.7361488555185043e-01  9.0012002417234116e-01  9.5920049555250131e-01  9.8349471327536164e-01  9.9239835734342696e-01  9.9570788377505892e-01  9.9705936524570193e-01  9.9760397300322712e-01  9.9767799389334677e-01  9.9733030427372504e-01  9.9639942151281102e-01  9.9426968284936257e-01  9.8894237244638916e-01  9.7454150971060705e-01  9.3753444298666866e-01  8.5508606697063771e-01  6.8870841061582855e-01  4.2308621032367694e-01  1.7940621216466618e-01  5.2470123946493155e-02  1.3766507398494185e-02  5.9568294822983248e-03  3.5780132063318844e-03  2.6103835087531882e-04  -5.7292123533371237e-04  9.8455968787438319e-04  -4.1371860342408396e-04  1.2091416141207126e-05  4.0586829135895677e-05  -5.9735954332438859e-06  7.1887283234811535e-06  -2.0420303305140764e-06  -2.3620709006535546e-06  7.3977172170715383e-06  -4.0354362920670655e-05  -6.2671741283604897e-07  3.3843049199807186e-04  -9.1510775255042504e-04  1.9660687115150861e-03  4.7088739527503523e-03  1.3311116200726836e-02  5.1221858391941662e-02  1.7544588262153391e-01  4.1572835634521499e-01  6.8198326017790756e-01  8.5104087752031254e-01  9.3537330234875282e-01  9.7354381468532669e-01  9.8850164898652038e-01  9.9403132543068884e-01  9.9622391526309750e-01  9.9717165263827956e-01  9.9752219226384253e-01  9.9744629228968351e-01  9.9689443800062127e-01  9.9551852404656083e-01  9.9212888445338254e-01  9.8298985473591660e-01  9.5814530111897711e-01  8.9815439479573522e-01  7.7036627657558754e-01  5.3587905330633412e-01  2.6157010229258182e-01  8.7774253861913135e-02  2.1939263066971734e-02  7.0700913363276156e-03  3.9758460353950809e-03  2.4399066652767486e-03  -4.8363809191180271e-04  -9.6229630441421949e-04  9.9867254459051367e-04  -1.5922014812141941e-04  -9.0118251642211104e-05  3.9855399442953015e-05  7.4612808889418974e-06  7.7255417651797814e-07  -8.5651440315158864e-07  7.6784217913424868e-07  -2.7626511750053878e-06  1.4281883530579910e-05  -3.9789430213722998e-05  -1.3081473948863157e-08  2.9137847898233905e-08  -1.3344805265264071e-07  6.2288687950937369e-07  -1.5282409786295545e-06  1.3926202554429077e-06  7.4314827609423301e-06  -1.8432004928525350e-05  4.0541663448013883e-05  -1.3066503615