<?xml version="1.0"?>
<VTKFile type="UnstructuredGrid"  version="0.1"  >
<UnstructuredGrid>
<Piece  NumberOfPoints="11156" NumberOfCells="22000">
<Points>
<DataArray  type="Float64"  NumberOfComponents="3"  format="ascii">0 0 0  2 0 0  4 0 0  6 0 0  8 0 0  10 0 0  12 0 0  14 0 0  16 0 0  18 0 0  20 0 0  22 0 0  24 0 0  26 0 0  28 0 0  30 0 0  32 0 0  34 0 0  36 0 0  38 0 0  40 0 0  42 0 0  44 0 0  46 0 0  48 0 0  50 0 0  52 0 0  54 0 0  56 0 0  58 0 0  60 0 0  62 0 0  64 0 0  66 0 0  68 0 0  70 0 0  72 0 0  74 0 0  76 0 0  78 0 0  80 0 0  82 0 0  84 0 0  86 0 0  88 0 0  90 0 0  92 0 0  94 0 0  96 0 0  98 0 0  100 0 0  102 0 0  104 0 0  106 0 0  108 0 0  110 0 0  112 0 0  114 0 0  116 0 0  118 0 0  120 0 0  122 0 0  124 0 0  126 0 0  128 0 0  130 0 0  132 0 0  134 0 0  136 0 0  138 0 0  140 0 0  142 0 0  144 0 0  146 0 0  148 0 0  150 0 0  152 0 0  154 0 0  156 0 0  158 0 0  160 0 0  162 0 0  164 0 0  166 0 0  168 0 0  170 0 0  172 0 0  174 0 0  176 0 0  178 0 0  180 0 0  182 0 0  184 0 0  186 0 0  188 0 0  190 0 0  192 0 0  194 0 0  196 0 0  198 0 0  200 0 0  0 2 0  2 2 0  4 2 0  6 2 0  8 2 0  10 2 0  12 2 0  14 2 0  16 2 0  18 2 0  20 2 0  22 2 0  24 2 0  26 2 0  28 2 0  30 2 0  32 2 0  34 2 0  36 2 0  38 2 0  40 2 0  42 2 0  44 2 0  46 2 0  48 2 0  50 2 0  52 2 0  54 2 0  56 2 0  58 2 0  60 2 0  62 2 0  64 2 0  66 2 0  68 2 0  70 2 0  72 2 0  74 2 0  76 2 0  78 2 0  80 2 0  82 2 0  84 2 0  86 2 0  88 2 0  90 2 0  92 2 0  94 2 0  96 2 0  98 2 0  100 2 0  102 2 0  104 2 0  106 2 0  108 2 0  110 2 0  112 2 0  114 2 0  116 2 0  118 2 0  120 2 0  122 2 0  124 2 0  126 2 0  128 2 0  130 2 0  132 2 0  134 2 0  136 2 0  138 2 0  140 2 0  142 2 0  144 2 0  146 2 0  148 2 0  150 2 0  152 2 0  154 2 0  156 2 0  158 2 0  160 2 0  162 2 0  164 2 0  166 2 0  168 2 0  170 2 0  172 2 0  174 2 0  176 2 0  178 2 0  180 2 0  182 2 0  184 2 0  186 2 0  188 2 0  190 2 0  192 2 0  194 2 0  196 2 0  198 2 0  200 2 0  0 4 0  2 4 0  4 4 0  6 4 0  8 4 0  10 4 0  12 4 0  14 4 0  16 4 0  18 4 0  20 4 0  22 4 0  24 4 0  26 4 0  28 4 0  30 4 0  32 4 0  34 4 0  36 4 0  38 4 0  40 4 0  42 4 0  44 4 0  46 4 0  48 4 0  50 4 0  52 4 0  54 4 0  56 4 0  58 4 0  60 4 0  62 4 0  64 4 0  66 4 0  68 4 0  70 4 0  72 4 0  74 4 0  76 4 0  78 4 0  80 4 0  82 4 0  84 4 0  86 4 0  88 4 0  90 4 0  92 4 0  94 4 0  96 4 0  98 4 0  100 4 0  102 4 0  104 4 0  106 4 0  108 4 0  110 4 0  112 4 0  114 4 0  116 4 0  118 4 0  120 4 0  122 4 0  124 4 0  126 4 0  128 4 0  130 4 0  132 4 0  134 4 0  136 4 0  138 4 0  140 4 0  142 4 0  144 4 0  146 4 0  148 4 0  150 4 0  152 4 0  154 4 0  156 4 0  158 4 0  160 4 0  162 4 0  164 4 0  166 4 0  168 4 0  170 4 0  172 4 0  174 4 0  176 4 0  178 4 0  180 4 0  182 4 0  184 4 0  186 4 0  188 4 0  190 4 0  192 4 0  194 4 0  196 4 0  198 4 0  200 4 0  0 6 0  2 6 0  4 6 0  6 6 0  8 6 0  10 6 0  12 6 0  14 6 0  16 6 0  18 6 0  20 6 0  22 6 0  24 6 0  26 6 0  28 6 0  30 6 0  32 6 0  34 6 0  36 6 0  38 6 0  40 6 0  42 6 0  44 6 0  46 6 0  48 6 0  50 6 0  52 6 0  54 6 0  56 6 0  58 6 0  60 6 0  62 6 0  64 6 0  66 6 0  68 6 0  70 6 0  72 6 0  74 6 0  76 6 0  78 6 0  80 6 0  82 6 0  84 6 0  86 6 0  88 6 0  90 6 0  92 6 0  94 6 0  96 6 0  98 6 0  100 6 0  102 6 0  104 6 0  106 6 0  108 6 0  110 6 0  112 6 0  114 6 0  116 6 0  118 6 0  120 6 0  122 6 0  124 6 0  126 6 0  128 6 0  130 6 0  132 6 0  134 6 0  136 6 0  138 6 0  140 6 0  142 6 0  144 6 0  146 6 0  148 6 0  150 6 0  152 6 0  154 6 0  156 6 0  158 6 0  160 6 0  162 6 0  164 6 0  166 6 0  168 6 0  170 6 0  172 6 0  174 6 0  176 6 0  178 6 0  180 6 0  182 6 0  184 6 0  186 6 0  188 6 0  190 6 0  192 6 0  194 6 0  196 6 0  198 6 0  200 6 0  0 8 0  2 8 0  4 8 0  6 8 0  8 8 0  10 8 0  12 8 0  14 8 0  16 8 0  18 8 0  20 8 0  22 8 0  24 8 0  26 8 0  28 8 0  30 8 0  32 8 0  34 8 0  36 8 0  38 8 0  40 8 0  42 8 0  44 8 0  46 8 0  48 8 0  50 8 0  52 8 0  54 8 0  56 8 0  58 8 0  60 8 0  62 8 0  64 8 0  66 8 0  68 8 0  70 8 0  72 8 0  74 8 0  76 8 0  78 8 0  80 8 0  82 8 0  84 8 0  86 8 0  88 8 0  90 8 0  92 8 0  94 8 0  96 8 0  98 8 0  100 8 0  102 8 0  104 8 0  106 8 0  108 8 0  110 8 0  112 8 0  114 8 0  116 8 0  118 8 0  120 8 0  122 8 0  124 8 0  126 8 0  128 8 0  130 8 0  132 8 0  134 8 0  136 8 0  138 8 0  140 8 0  142 8 0  144 8 0  146 8 0  148 8 0  150 8 0  152 8 0  154 8 0  156 8 0  158 8 0  160 8 0  162 8 0  164 8 0  166 8 0  168 8 0  170 8 0  172 8 0  174 8 0  176 8 0  178 8 0  180 8 0  182 8 0  184 8 0  186 8 0  188 8 0  190 8 0  192 8 0  194 8 0  196 8 0  198 8 0  200 8 0  0 10 0  2 10 0  4 10 0  6 10 0  8 10 0  10 10 0  12 10 0  14 10 0  16 10 0  18 10 0  20 10 0  22 10 0  24 10 0  26 10 0  28 10 0  30 10 0  32 10 0  34 10 0  36 10 0  38 10 0  40 10 0  42 10 0  44 10 0  46 10 0  48 10 0  50 10 0  52 10 0  54 10 0  56 10 0  58 10 0  60 10 0  62 10 0  64 10 0  66 10 0  68 10 0  70 10 0  72 10 0  74 10 0  76 10 0  78 10 0  80 10 0  82 10 0  84 10 0  86 10 0  88 10 0  90 10 0  92 10 0  94 10 0  96 10 0  98 10 0  100 10 0  102 10 0  104 10 0  106 10 0  108 10 0  110 10 0  112 10 0  114 10 0  116 10 0  118 10 0  120 10 0  122 10 0  124 10 0  126 10 0  128 10 0  130 10 0  132 10 0  134 10 0  136 10 0  138 10 0  140 10 0  142 10 0  144 10 0  146 10 0  148 10 0  150 10 0  152 10 0  154 10 0  156 10 0  158 10 0  160 10 0  162 10 0  164 10 0  166 10 0  168 10 0  170 10 0  172 10 0  174 10 0  176 10 0  178 10 0  180 10 0  182 10 0  184 10 0  186 10 0  188 10 0  190 10 0  192 10 0  194 10 0  196 10 0  198 10 0  200 10 0  0 12 0  2 12 0  4 12 0  6 12 0  8 12 0  10 12 0  12 12 0  14 12 0  16 12 0  18 12 0  20 12 0  22 12 0  24 12 0  26 12 0  28 12 0  30 12 0  32 12 0  34 12 0  36 12 0  38 12 0  40 12 0  42 12 0  44 12 0  46 12 0  48 12 0  50 12 0  52 12 0  54 12 0  56 12 0  58 12 0  60 12 0  62 12 0  64 12 0  66 12 0  68 12 0  70 12 0  72 12 0  74 12 0  76 12 0  78 12 0  80 12 0  82 12 0  84 12 0  86 12 0  88 12 0  90 12 0  92 12 0  94 12 0  96 12 0  98 12 0  100 12 0  102 12 0  104 12 0  106 12 0  108 12 0  110 12 0  112 12 0  114 12 0  116 12 0  118 12 0  120 12 0  122 12 0  124 12 0  126 12 0  128 12 0  130 12 0  132 12 0  134 12 0  136 12 0  138 12 0  140 12 0  142 12 0  144 12 0  146 12 0  148 12 0  150 12 0  152 12 0  154 12 0  156 12 0  158 12 0  160 12 0  162 12 0  164 12 0  166 12 0  168 12 0  170 12 0  172 12 0  174 12 0  176 12 0  178 12 0  180 12 0  182 12 0  184 12 0  186 12 0  188 12 0  190 12 0  192 12 0  194 12 0  196 12 0  198 12 0  200 12 0  0 14 0  2 14 0  4 14 0  6 14 0  8 14 0  10 14 0  12 14 0  14 14 0  16 14 0  18 14 0  20 14 0  22 14 0  24 14 0  26 14 0  28 14 0  30 14 0  32 14 0  34 14 0  36 14 0  38 14 0  40 14 0  42 14 0  44 14 0  46 14 0  48 14 0  50 14 0  52 14 0  54 14 0  56 14 0  58 14 0  60 14 0  62 14 0  64 14 0  66 14 0  68 14 0  70 14 0  72 14 0  74 14 0  76 14 0  78 14 0  80 14 0  82 14 0  84 14 0  86 14 0  88 14 0  90 14 0  92 14 0  94 14 0  96 14 0  98 14 0  100 14 0  102 14 0  104 14 0  106 14 0  108 14 0  110 14 0  112 14 0  114 14 0  116 14 0  118 14 0  120 14 0  122 14 0  124 14 0  126 14 0  128 14 0  130 14 0  132 14 0  134 14 0  136 14 0  138 14 0  140 14 0  142 14 0  144 14 0  146 14 0  148 14 0  150 14 0  152 14 0  154 14 0  156 14 0  158 14 0  160 14 0  162 14 0  164 14 0  166 14 0  168 14 0  170 14 0  172 14 0  174 14 0  176 14 0  178 14 0  180 14 0  182 14 0  184 14 0  186 14 0  188 14 0  190 14 0  192 14 0  194 14 0  196 14 0  198 14 0  200 14 0  0 16 0  2 16 0  4 16 0  6 16 0  8 16 0  10 16 0  12 16 0  14 16 0  16 16 0  18 16 0  20 16 0  22 16 0  24 16 0  26 16 0  28 16 0  30 16 0  32 16 0  34 16 0  36 16 0  38 16 0  40 16 0  42 16 0  44 16 0  46 16 0  48 16 0  50 16 0  52 16 0  54 16 0  56 16 0  58 16 0  60 16 0  62 16 0  64 16 0  66 16 0  68 16 0  70 16 0  72 16 0  74 16 0  76 16 0  78 16 0  80 16 0  82 16 0  84 16 0  86 16 0  88 16 0  90 16 0  92 16 0  94 16 0  96 16 0  98 16 0  100 16 0  102 16 0  104 16 0  106 16 0  108 16 0  110 16 0  112 16 0  114 16 0  116 16 0  118 16 0  120 16 0  122 16 0  124 16 0  126 16 0  128 16 0  130 16 0  132 16 0  134 16 0  136 16 0  138 16 0  140 16 0  142 16 0  144 16 0  146 16 0  148 16 0  150 16 0  152 16 0  154 16 0  156 16 0  158 16 0  160 16 0  162 16 0  164 16 0  166 16 0  168 16 0  170 16 0  172 16 0  174 16 0  176 16 0  178 16 0  180 16 0  182 16 0  184 16 0  186 16 0  188 16 0  190 16 0  192 16 0  194 16 0  196 16 0  198 16 0  200 16 0  0 18 0  2 18 0  4 18 0  6 18 0  8 18 0  10 18 0  12 18 0  14 18 0  16 18 0  18 18 0  20 18 0  22 18 0  24 18 0  26 18 0  28 18 0  30 18 0  32 18 0  34 18 0  36 18 0  38 18 0  40 18 0  42 18 0  44 18 0  46 18 0  48 18 0  50 18 0  52 18 0  54 18 0  56 18 0  58 18 0  60 18 0  62 18 0  64 18 0  66 18 0  68 18 0  70 18 0  72 18 0  74 18 0  76 18 0  78 18 0  80 18 0  82 18 0  84 18 0  86 18 0  88 18 0  90 18 0  92 18 0  94 18 0  96 18 0  98 18 0  100 18 0  102 18 0  104 18 0  106 18 0  108 18 0  110 18 0  112 18 0  114 18 0  116 18 0  118 18 0  120 18 0  122 18 0  124 18 0  126 18 0  128 18 0  130 18 0  132 18 0  134 18 0  136 18 0  138 18 0  140 18 0  142 18 0  144 18 0  146 18 0  148 18 0  150 18 0  152 18 0  154 18 0  156 18 0  158 18 0  160 18 0  162 18 0  164 18 0  166 18 0  168 18 0  170 18 0  172 18 0  174 18 0  176 18 0  178 18 0  180 18 0  182 18 0  184 18 0  186 18 0  188 18 0  190 18 0  192 18 0  194 18 0  196 18 0  198 18 0  200 18 0  0 20 0  2 20 0  4 20 0  6 20 0  8 20 0  10 20 0  12 20 0  14 20 0  16 20 0  18 20 0  20 20 0  22 20 0  24 20 0  26 20 0  28 20 0  30 20 0  32 20 0  34 20 0  36 20 0  38 20 0  40 20 0  42 20 0  44 20 0  46 20 0  48 20 0  50 20 0  52 20 0  54 20 0  56 20 0  58 20 0  60 20 0  62 20 0  64 20 0  66 20 0  68 20 0  70 20 0  72 20 0  74 20 0  76 20 0  78 20 0  80 20 0  82 20 0  84 20 0  86 20 0  88 20 0  90 20 0  92 20 0  94 20 0  96 20 0  98 20 0  100 20 0  102 20 0  104 20 0  106 20 0  108 20 0  110 20 0  112 20 0  114 20 0  116 20 0  118 20 0  120 20 0  122 20 0  124 20 0  126 20 0  128 20 0  130 20 0  132 20 0  134 20 0  136 20 0  138 20 0  140 20 0  142 20 0  144 20 0  146 20 0  148 20 0  150 20 0  152 20 0  154 20 0  156 20 0
[...]
<PointData  Scalars="C"> 
<DataArray  type="Float64"  Name="C"  format="ascii">-4.0128885409051525e-11  1.7858898046652954e-10  -8.7732888083180050e-10  3.0849707599139331e-09  -8.1420456563543931e-09  1.7848577950212655e-08  -3.5566812347520919e-08  4.8156352674536651e-08  4.9097324033521796e-08  -4.0039400357084215e-07  6.2998124343015450e-07  -5.6595710855176818e-08  5.6989877951052132e-07  -7.0105924242576072e-06  1.5944257386240124e-05  1.7679954858540311e-05  -1.3719363755837233e-04  6.6927966419299802e-05  4.9525137533034367e-04  2.1383151763157223e-04  -7.2121197552958618e-04  -1.4210351496474428e-03  -1.9220778749373863e-03  -1.6176397180552298e-03  -2.9424967382386818e-04  9.0163442505426556e-04  1.2727749330524955e-03  7.8979082725293202e-04  2.0470275371576509e-04  -8.3392934931892672e-04  -1.2976504333551712e-03  -1.6017587126340765e-03  -1.9848850568148675e-03  -2.2312595162551929e-03  -1.4098078353351835e-03  9.9160828218266346e-04  1.5831234121571282e-03  7.6305038428647735e-04  -4.0145443296616990e-04  -1.7942583202025994e-04  -3.2763174042930700e-05  -6.9706916267697877e-05  1.4387693729941747e-04  -2.2069205764065222e-05  -4.0411913851708129e-05  1.2459942146510683e-05  2.9736154060065962e-06  -1.4598942715669351e-06  -1.5606923584213286e-07  1.1383680757363805e-08  -7.4763059793989793e-08  -7.5031226591378635e-08  -9.6901143562981313e-08  8.8909342652271479e-07  -2.3491601190647588e-06  -1.6963636760370136e-06  3.2889966850825004e-05  -1.2305295626183828e-04  2.5588480939981291e-04  -2.2222670715751127e-04  -2.6525127406324810e-04  8.2170747182944918e-04  -2.2545726161785523e-04  -1.1732937498572541e-03  3.1572176177932374e-04  1.7123682807017356e-03  5.8115694325383180e-04  -1.6404533380448571e-03  -1.6941704749142905e-03  -1.5495590135961258e-03  -1.3519817250100157e-03  -9.4127416264616203e-04  1.1047339171508955e-04  1.1065960323835722e-03  1.6184029699774555e-03  1.1982888338427900e-03  -3.8695142480290073e-05  -1.8649103368890384e-03  -2.4999210788008860e-03  -2.4275844350264020e-03  -1.9713136567254138e-03  4.9901518214666755e-04  2.1369730160371867e-03  1.2550274390549336e-03  -9.9769184598064511e-04  -1.0709484829486448e-03  4.5005111622895374e-04  2.8627968216126846e-04  -1.5947663937812415e-04  -2.4814282940446564e-05  2.3252773059655651e-05  -8.3676796429252285e-07  -1.7749375526155839e-06  6.0070026497866804e-07  -8.9703502618283865e-08  -2.4730257230307825e-07  -6.2382221488328473e-08  -6.5366154846034620e-08  1.1718618806543623e-06  -8.5413723015925159e-06  1.2442628667392262e-05  -1.2612380944716922e-11  -6.0526482480570302e-12  2.0552971329626246e-10  -9.8528656501112467e-10  2.3553500037828423e-09  -4.3626304325004461e-09  1.8269538051181803e-08  -1.0061233964474933e-07  3.0874972026213086e-07  -2.1613804460769198e-07  -2.3365075550173498e-06  1.3142935814568024e-05  -4.3896253599883865e-05  9.5798438663794613e-05  -9.8706884389114039e-05  -1.0387038247396330e-04  5.0925209305457898e-04  -3.1992261502553629e-04  -1.3489606491045747e-03  1.7414459373393324e-04  2.1822733332178225e-03  2.1749643826235584e-03  1.6739818954530092e-03  5.1043100283610688e-04  -7.3464594024411371e-04  -1.3055524228334169e-03  -1.1872192264553818e-03  -4.0531085854957506e-04  7.0504153209612313e-04  1.6677515612632742e-03  1.8470592937459276e-03  1.8811775396025874e-03  1.9580129697873458e-03  1.3129514461517127e-03  -2.7051146421884205e-04  -1.5445705774408645e-03  -1.5655173132930937e-03  1.8165759332650105e-04  1.2925849605379216e-03  3.4640584694060287e-04  -6.9828914388538022e-04  9.8887235290179393e-05  7.7476507244412951e-05  -4.3062847449024072e-06  1.1638058007713409e-05  -1.2394341790730120e-05  2.7609108435042609e-06  8.3481881029467353e-07  -1.2957623701420975e-07  8.2014096220191495e-08  1.2353061858353189e-07  4.0930207401288813e-08  3.1828544795085416e-08  -8.5146198959976200e-07  3.3732710320224937e-06  -1.3228190616438781e-06  -3.3714567884327558e-05  1.5294534744586706e-04  -3.5911156572045270e-04  4.1613095639858990e-04  1.8587232732469907e-04  -9.9928378836242884e-04  6.3822714146055009e-04  1.0754407356911438e-03  -5.4071575650755049e-04  -1.2341519026609362e-03  -8.7316420283186031e-04  7.7859373856463312e-04  1.5088903426615846e-03  1.5451628514142075e-03  1.5505873121633518e-03  1.5161542012196076e-03  6.4870564684429315e-04  -4.1690142215235795e-04  -1.2176892935940903e-03  -1.3536502193113448e-03  -1.1113972386587740e-03  4.1905953053389779e-04  1.8919998536101996e-03  2.3372559309678947e-03  3.0446557702145504e-03  1.2313578616467826e-03  -1.8740280074604453e-03  -2.1299647022532272e-03  7.5022778058183735e-04  1.5280727616833265e-03  -5.0685466231832827e-04  -4.4746194390140573e-04  2.0550982001053784e-04  2.1347913136861705e-05  -2.9599354788356658e-05  4.4627236894892669e-06  1.6743805790477868e-06  -1.0219845632677752e-06  2.7128184114033985e-07  3.0968586569940548e-07  2.1763787747955706e-08  -1.0420181532455940e-07  -3.1918643870382269e-08  4.2908918940061345e-06  -1.2743253642101942e-05  -1.0489426113283489e-10  2.7220234492109830e-10  -1.2494428088626040e-09  4.3370113111943747e-09  -9.8808923924724824e-09  1.2733915307507335e-08  -1.0977684818378877e-08  6.5737574496909952e-08  -4.2428643535103309e-07  1.3406447526209796e-06  -1.8146428083161170e-06  -4.5176619162304415e-06  3.9470207770175257e-05  -1.4309844070281246e-04  2.3713550068651959e-04  -1.6656173079534413e-04  -6.1732599717093757e-04  1.0957386454924704e-03  1.5279934914867064e-03  -5.1846507144897376e-04  -2.1101033800410185e-03  -2.2361846494004726e-03  -1.5328478565231620e-03  -5.6660380240843673e-04  2.4003140336191061e-04  9.9827604241509941e-04  1.4660854196785020e-03  1.3347332613261533e-03  5.4251092313159651e-04  -1.1837253754355364e-03  -2.6300799154438705e-03  -2.6233897972665959e-03  -1.7722479277698540e-03  -2.5178220848579106e-04  8.3481317200216523e-04  1.8157540161811239e-03  9.1325897379404021e-04  -7.3507924249245930e-04  -1.3058771786114928e-03  -2.4804737587052643e-04  9.4134166690106893e-04  1.3142171347002292e-05  -2.0256284021876313e-04  7.1416386210916514e-05  -5.0728786271826582e-06  1.5650460844721736e-05  -6.7843136408424276e-06  4.7025279463725909e-07  1.2413795475496118e-08  -2.8536856825084707e-07  -2.0168429439691808e-07  -3.1230596417903478e-08  -1.9061318339011434e-08  1.1310160988915623e-06  -6.2918793352482128e-06  1.2124376220165696e-05  1.9954865039821240e-05  -1.5419946044981423e-04  4.2202692411688256e-04  -6.2800100565441616e-04  2.6096352721439428e-04  6.3030626544523845e-04  -7.6421727025678058e-04  -4.0697633206357821e-04  3.9655528608791799e-04  8.0696362475285140e-04  7.8130588628836251e-04  -4.9589185646461064e-04  -1.7714827509074382e-03  -2.5866002436473814e-03  -2.4782374902280946e-03  -1.2727742113739838e-03  3.9898244806001801e-05  8.8563717575528618e-04  1.2970680789917161e-03  1.0216957879762632e-03  6.7308178239213390e-04  -1.7041129516331423e-04  -1.4567034891266016e-03  -1.8376320457829083e-03  -2.4878129142143846e-03  -1.4635774389745889e-03  1.5421543568023301e-03  2.7017551932979468e-03  -4.0684054098160153e-04  -2.0199493066841360e-03  6.0159317742246006e-04  7.9537611849055090e-04  -3.4610566723683889e-04  -3.3928846794845444e-05  4.6355281944969737e-05  -1.1610653223527911e-05  -9.7693381576088427e-07  2.0496085136174482e-06  -7.2010607397176247e-07  -5.3888488404046345e-07  5.5766461145224933e-08  4.2921557678154006e-08  3.0350424664363650e-07  -4.8761601436805088e-06  1.8574727668143320e-05  3.0406089986307680e-10  -7.5534693557475536e-10  3.2841465204925471e-09  -1.1589706921935876e-08  2.7163626149769018e-08  -3.9004642673268846e-08  2.6308749600399661e-08  -3.4232937736949378e-08  2.3407485985108727e-07  -1.1072754226933430e-06  3.1260226725162131e-06  -4.7216125665856080e-06  -2.6306790688094004e-05  1.5050024422403750e-04  -2.7322769723125398e-04  4.2775552226696702e-04  7.6692195354659135e-04  -5.8379073301235822e-04  -1.3264115138393415e-03  -1.2180915105866278e-03  -6.8708047854391669e-04  1.0418518760409881e-03  1.9463393755737174e-03  2.9243484015851686e-03  3.6722277555644046e-03  4.2110693983311593e-03  4.5889484725719206e-03  4.7818065490320581e-03  4.7232522578670071e-03  4.2911971102180969e-03  3.6025558431632865e-03  3.1563795382886662e-03  3.2951207023633245e-03  3.2593978991550736e-03  1.5982859236910772e-04  -3.2943074403127904e-03  -2.7723036335285025e-04  1.1324621239543690e-03  1.4464792407329931e-03  -2.8173712814031786e-04  -1.1427508178899802e-03  -1.4370116065534340e-05  4.4863306797872366e-04  -1.1436776184078979e-04  5.5050541768059136e-06  -3.0020401726677802e-07  1.3782359089438100e-05  -2.9601719175988139e-06  1.2697138225069804e-06  4.8589082706454343e-07  2.7775919775034765e-07  4.3411908335312493e-08  2.3193679552286076e-09  -9.2931500418159227e-07  8.7529658931059186e-06  -2.6539169595537939e-05  1.9313076721221295e-05  1.0493244295731736e-04  -3.6343617328969858e-04  6.3427278261697021e-04  -5.5128885435494620e-04  -2.2158389235658220e-04  7.3961206691563748e-04  3.7477916711133009e-04  -5.2079810589768293e-04  -2.5718155722743020e-03  -6.5503792428898673e-04  2.2171143768697208e-03  3.1431459247409942e-03  3.3265352291819016e-03  3.8114527464078139e-03  4.3503884070088027e-03  4.6238421433351488e-03  4.6022834018629747e-03  4.4092158988600586e-03  4.0502038874961049e-03  3.5340549587339039e-03  2.7941173599259441e-03  2.0040443347327094e-03  1.2414827059296577e-03  2.2551645294840465e-04  3.6779818692520179e-04  -1.6710680733288226e-03  -1.6086923395893554e-03  1.1220256680427674e-03  2.0915051766753393e-03  -9.5905994076481236e-04  -9.6890961231477734e-04  6.6321811034897912e-04  1.6011532968446963e-05  -8.0637027078155060e-05  2.4329285845537863e-05  -1.9757704276606139e-06  -3.2052322565567466e-06  1.5229120093744706e-06  8.4438916530638388e-07  -2.0064472313280482e-07  -1.5701247655733503e-08  -5.9118743052515162e-07  5.7387097759784308e-06  -2.3904324122577024e-05  -8.9490634708393971e-10  2.1342122217091584e-09  -9.0445247734553192e-09  3.0994827378533447e-08  -7.2654331127046306e-08  1.0081184074443969e-07  -6.2155891432848506e-08  -1.2480051872435010e-09  3.3431954329438712e-07  -1.6819957954822386e-06  -1.0584293184758849e-06  1.2920252585631208e-05  -1.5796996733223886e-05  -1.4658712927488138e-04  1.9522391755309254e-04  -1.2949380671825592e-04  -6.0322335790363843e-04  -7.3262147407967941e-04  -1.0757085784038017e-03  1.1333872637617098e-03  3.0792626963736360e-03  4.7220673202760461e-03  6.1859198088843187e-03  8.8428355282344669e-03  1.2448607129429478e-02  1.5989863839556410e-02  1.8655805365218128e-02  2.0168411738846131e-02  2.0472752276418694e-02  1.9575103693328620e-02  1.7512206715908453e-02  1.4429525803831078e-02  1.0775092679897751e-02  7.4071960126766015e-03  4.8443335693864860e-03  3.2128609023985531e-03  3.1294765720318255e-03  9.5415194342018071e-04  -2.8966129332206221e-03  8.8446497906654068e-04  1.5871303950653300e-03  -2.9015526422192939e-04  -1.0076595974491257e-03  1.9021733681666580e-04  5.7408156546192286e-05  -9.1067324898961617e-06  -5.8248715945544966e-06  7.7754331969257094e-06  -3.9122075413561279e-06  1.4668609884946132e-07  -6.0425581741675811e-07  -5.7952499183073643e-08  3.4176284811122051e-08  6.3157240860394093e-07  -6.9831532104974157e-06  4.4544782920354943e-05  -7.5696071249179572e-05  1.9413099495282525e-05  2.0018307058861418e-04  -5.7255260736654610e-04  8.6883994838033308e-04  3.0746485496363951e-04  -2.1126037112301111e-03  -2.6242326746041863e-04  2.0526139437892880e-03  3.3043655315548336e-03  4.7810850014281901e-03  7.1609210312495088e-03  1.0459918129422319e-02  1.4088076516187504e-02  1.7137818184858798e-02  1.9159894450679432e-02  2.0033007016745787e-02  1.9730342957482810e-02  1.8246795737571177e-02  1.5631741697294508e-02  1.2152005587261755e-02  8.6358855840058535e-03  6.1026165459648488e-03  4.7445832325300292e-03  3.5138756584585135e-03  1.9345136598914272e-03  5.5534858675701623e-04  2.8345262600995542e-04  -1.7180784117143471e-03  -7.7434169280809258e-04  1.6507196864184641e-03  4.7342505341685577e-04  -9.9262860662287429e-04  2.1965017146558340e-04  1.2404627230323608e-04  -5.7195726652005030e-05  1.0074993365518864e-05  4.1507250779185007e-06  -2.5566248675579672e-06  -1.2253987796106479e-06  4.8887811313039247e-07  -7.0611635682258275e-08  1.0272627658061943e-06  -7.3061534504347913e-06  2.8582860650449151e-05  2.2035353353867351e-09  -5.4421848829011116e-09  2.2974217042074311e-08  -7.9090427350011791e-08  1.8072993118831672e-07  -2.1228714366574936e-07  2.9898151194260673e-08  3.3420144825582261e-07  -1.9912465180065248e-06  1.0456327277498360e-05  -1.2146266399904505e-05  -2.1185071757960950e-05  1.0774531756190295e-04  2.3476499042264615e-04  5.6892212411169697e-04  -3.7992147988852727e-04  -1.2329757203496145e-03  1.5621351835584387e-03  3.6070186526642807e-03  6.6438826973231968e-03  1.4476708783641171e-02  3.6554063861383275e-02  8.1138727393848226e-02  1.4008763308085423e-01  1.9387253255256348e-01  2.3255281493973995e-01  2.5678802479940943e-01  2.6932935553788073e-01  2.7183631108533357e-01  2.6474991344407928e-01  2.4738705638210245e-01  2.1775199430559394e-01  1.7332389955520630e-01  1.1637272949882764e-01  6.1530945763278548e-02  2.6061855859075764e-02  1.0606187924182563e-02  5.2470355925276612e-03  3.3370626144805442e-03  2.2116301230380455e-03  -2.3063448976153996e-03  7.6935006507558275e-04  1.2916772705870289e-03  -6.6414036776393532e-04  -2.8166072994688048e-04  1.1389318039546272e-04  2.2906449824742241e-05  -3.6034215295316950e-06  6.8476232598536509e-06  -1.8905277125398419e-06  1.8070157973963939e-06  -1.8975791898044648e-07  -1.2573082999973212e-07  4.9915660145484826e-07  3.1620896807133775e-06  -5.1423157292569261e-05  1.5895824158296504e-04  -2.4711221056558029e-04  2.2188098892566297e-04  8.5350971214213185e-04  -1.8634287423519816e-03  6.4620040408135051e-04  2.6598349249193267e-03  5.0787557619371539e-03  1.0170146546180918e-02  2.4977107710818361e-02  5.9283501155071736e-02  1.1317927587639318e-01  1.6998110204088093e-01  2.1459503290123899e-01  2.4430883037485210e-01  2.6162971035009197e-01  2.6868072355602346e-01  2.6623329472908103e-01  2.5384470063297426e-01  2.2977437346756824e-01  1.9119781109874090e-01  1.3759497793425837e-01  7.9261764736910351e-02  3.5606955098393546e-02  1.4149742085504300e-02  6.6140042072386123e-03  4.2680968426342444e-03  2.7369336784714348e-03  1.1581296050484063e-03  -3.3015070610846394e-04  -1.3607391690036109e-03  6.8695169021155348e-04  1.0219878715038344e-03  -6.5891422552012170e-04  -1.0294022038396737e-05  1.2350724874315310e-04  -3.3075319090137814e-05  -2.7168747517432877e-06  3.9344990627651566e-06  1.7725468574646980e-06  -9.4809296437906606e-07  3.1370267474447930e-07  -1.6547426333004224e-06  9.6652253330919426e-06  -3.2621860794452134e-05  -4.8785550790247666e-09  1.2072621147056805e-08  -5.2952650177135757e-08  1.8765467119174514e-07  -4.0885726051762039e-07  4.0091263711818221e-07  6.3179832396418214e-07  -1.5534827674051533e-06  7.7230599897325745e-06  -3.0885344166663661e-05  5.0393195384005453e-05  1.2433374631833935e-05  -1.1168549344174413e-04  8.2981448199225289e-05  -1.7888994758258193e-03  1.2763778285472885e-03  3.4552322578667184e-03  7.8896400129663726e-03  2.3408554178098884e-02  7.5651874106253930e-02  1.8813594075918663e-01  3.6248300414647711e-01  5.6152204169191811e-01  7.1067481636114760e-01  7.9076567056610392e-01  8.2915689986533281e-01  8.4780440651859990e-01  8.5623426775178291e-01  8.5782758347112675e-01  8.5322290481715080e-01  8.4096247558113735e-01  8.1596411930630142e-01  7.6485487599156210e-01  6.6144389311848351e-01  4.8904366603740718e-01  2.9408215459861792e-01  1.4269688101696384e-01  5.2747248152042903e-02  1.6242719857333259e-02  6.5244169490573118e-03  3.7737527768298973e-03  2.3520554083994948e-03  -2.0230245301874760e-03  1.2627367314230959e-03  3.0839920272330884e-04  -5.0208930293825190e-04  7.4358011347768342e-05  3.3366455795540964e-05  -6.2708084272850811e-06  4.1674051623018215e-06  -4.0437556543248503e-06  9.4944520213587217e-07  6.9571763434582701e-07  -6.4147399164338210e-07  1.3306127155004165e-05  4.6843817898117342e-05  -2.4685024829972758e-04  6.4009199143513686e-04  -8.8667784019479145e-04  -5.7674810914667995e-04  2.4233971930412842e-03  6.1815566992685783e-03  1.5647875142641109e-02  5.0951189332352396e-02  1.3848871256921638e-01  2.8668065552124344e-01  4.7976937434516009e-01  6.5405753428673807e-01  7.6030575916567922e-01  8.1302750917668765e-01  8.3866935652138186e-01  8.5114655879801138e-01  8.5581483144417259e-01  8.5423111880549552e-01  8.4574962372490736e-01  8.2686853940525851e-01  7.8776781182712563e-01  7.0615107863701665e-01  5.5539618006754932e-01  3.5695933594687101e-01  1.8483126213314593e-01  7.4166738382481640e-02  2.2987767436154452e-02  7.9508432116776641e-03  4.4151252053457454e-03  2.6803203336592304e-03  1.1362837577379751e-03  -1.0991486173473071e-03  -2.3761297504761817e-04  1.0007558818472674e-03  -3.3385647262128000e-04  -1.0390814075869431e-04  9.1247197624930081e-05  -2.2126845589447523e-06  -4.4924037199965029e-06  -1.7034057367444163e-06  1.4552856062933618e-06  -7.3223637268283198e-07  2.5340090014319103e-06  -1.2888914443704201e-05  3.6110546881987671e-05  1.0052512066376565e-08  -2.4512141963241844e-08  1.1041826246843262e-07  -3.9680774731642414e-07  9.1539986752642790e-07  -3.9820811564433389e-07  -2.4158093272019833e-06  8.2937575648828344e-06  -1.8318717457763372e-05  7.6989728201193631e-05  -1.5080954883111696e-04  1.9099132410710861e-04  8.3277386235600827e-06  3.7380249122295151e-05  2.1872682460522194e-03  6.4856544062313129e-03  2.0381104782010134e-02  8.1951534578224974e-02  2.4879136761033260e-01  5.1965319903778207e-01  7.5927745746677477e-01  8.9217435412859447e-01  9.5519550426251598e-01  9.8170851356023703e-01  9.9154440551185719e-01  9.9517112702533139e-01  9.9661995500320544e-01  9.9719492856205871e-01  9.9728427661838404e-01  9.9695275386793747e-01  9.9603927281643034e-01  9.9391786211026656e-01  9.8857449607374148e-01  9.7415584880429928e-01  9.3733958760073410e-01  8.5577813775746459e-01  6.9120464704537210e-01  4.2652913594551101e-01  1.8125982069472449e-01  5.2934634958241182e-02  1.3880503924581225e-02  6.0443800091596464e-03  3.6869569735603330e-03  5.9895369611001040e-04  -4.8193108453457639e-04  8.5610205023913140e-04  -4.0137021835967470e-04  4.3429291784903307e-05  2.4358863307893993e-05  -8.0052238719366667e-06  9.3429735921734589e-06  -3.4741182426000350e-06  -2.4405981074190175e-06  6.2975519867626403e-06  -3.9547629924660949e-05  1.6405665403244643e-05  2.9375483678101136e-04  -8.0632250898933489e-04  2.2124658556996204e-03  4.9918246221513840e-03  1.3496051618305816e-02  5.1848412091457297e-02  1.7742338454349971e-01  4.1889772018235166e-01  6.8388968814245099e-01  8.5115760095342030e-01  9.3476913123029826e-01  9.7293694078179127e-01  9.8802921800595833e-01  9.9362619917327843e-01  9.9583057938767439e-01  9.9676879558433418e-01  9.9710613164969475e-01  9.9701521822862182e-01  9.9643020855445130e-01  9.9494701705503397e-01  9.9121099406473745e-01  9.8106471610749912e-01  9.5385815042514233e-01  8.8973719294640385e-01  7.5530930084957537e-01  5.1461507524766537e-01  2.4540006054296756e-01  8.0669849041712954e-02  2.0140504540473263e-02  6.7177867467802417e-03  3.8923852197489343e-03  2.3394140899700160e-03  -3.6207860097360887e-04  -9.8307945863351765e-04  9.4515161946002806e-04  -1.2077022682252013e-04  -9.3588464796537236e-05  2.9816344694908356e-05  9.5810156679174777e-06  1.1878284256948897e-06  -4.3465598002963745e-07  9.9326688422363959e-07  -3.6096598385136591e-06  1.7086264430891641e-05  -3.9235161003716171e-05  -2.1931148149385550e-08  5.0552999310672474e-08  -2.0982783975702332e-07  8.2446942239596624e-07  -1.6880918224991086e-06  7.5471984048118822e-07  1.0056489501474648e-05  -2.2162018117799774e-05  4.6922101465105417e-05  -1.489856