<?xml version="1.0"?>
<VTKFile type="UnstructuredGrid"  version="0.1"  >
<UnstructuredGrid>
<Piece  NumberOfPoints="11156" NumberOfCells="22000">
<Points>
<DataArray  type="Float64"  NumberOfComponents="3"  format="ascii">0 0 0  2 0 0  4 0 0  6 0 0  8 0 0  10 0 0  12 0 0  14 0 0  16 0 0  18 0 0  20 0 0  22 0 0  24 0 0  26 0 0  28 0 0  30 0 0  32 0 0  34 0 0  36 0 0  38 0 0  40 0 0  42 0 0  44 0 0  46 0 0  48 0 0  50 0 0  52 0 0  54 0 0  56 0 0  58 0 0  60 0 0  62 0 0  64 0 0  66 0 0  68 0 0  70 0 0  72 0 0  74 0 0  76 0 0  78 0 0  80 0 0  82 0 0  84 0 0  86 0 0  88 0 0  90 0 0  92 0 0  94 0 0  96 0 0  98 0 0  100 0 0  102 0 0  104 0 0  106 0 0  108 0 0  110 0 0  112 0 0  114 0 0  116 0 0  118 0 0  120 0 0  122 0 0  124 0 0  126 0 0  128 0 0  130 0 0  132 0 0  134 0 0  136 0 0  138 0 0  140 0 0  142 0 0  144 0 0  146 0 0  148 0 0  150 0 0  152 0 0  154 0 0  156 0 0  158 0 0  160 0 0  162 0 0  164 0 0  166 0 0  168 0 0  170 0 0  172 0 0  174 0 0  176 0 0  178 0 0  180 0 0  182 0 0  184 0 0  186 0 0  188 0 0  190 0 0  192 0 0  194 0 0  196 0 0  198 0 0  200 0 0  0 2 0  2 2 0  4 2 0  6 2 0  8 2 0  10 2 0  12 2 0  14 2 0  16 2 0  18 2 0  20 2 0  22 2 0  24 2 0  26 2 0  28 2 0  30 2 0  32 2 0  34 2 0  36 2 0  38 2 0  40 2 0  42 2 0  44 2 0  46 2 0  48 2 0  50 2 0  52 2 0  54 2 0  56 2 0  58 2 0  60 2 0  62 2 0  64 2 0  66 2 0  68 2 0  70 2 0  72 2 0  74 2 0  76 2 0  78 2 0  80 2 0  82 2 0  84 2 0  86 2 0  88 2 0  90 2 0  92 2 0  94 2 0  96 2 0  98 2 0  100 2 0  102 2 0  104 2 0  106 2 0  108 2 0  110 2 0  112 2 0  114 2 0  116 2 0  118 2 0  120 2 0  122 2 0  124 2 0  126 2 0  128 2 0  130 2 0  132 2 0  134 2 0  136 2 0  138 2 0  140 2 0  142 2 0  144 2 0  146 2 0  148 2 0  150 2 0  152 2 0  154 2 0  156 2 0  158 2 0  160 2 0  162 2 0  164 2 0  166 2 0  168 2 0  170 2 0  172 2 0  174 2 0  176 2 0  178 2 0  180 2 0  182 2 0  184 2 0  186 2 0  188 2 0  190 2 0  192 2 0  194 2 0  196 2 0  198 2 0  200 2 0  0 4 0  2 4 0  4 4 0  6 4 0  8 4 0  10 4 0  12 4 0  14 4 0  16 4 0  18 4 0  20 4 0  22 4 0  24 4 0  26 4 0  28 4 0  30 4 0  32 4 0  34 4 0  36 4 0  38 4 0  40 4 0  42 4 0  44 4 0  46 4 0  48 4 0  50 4 0  52 4 0  54 4 0  56 4 0  58 4 0  60 4 0  62 4 0  64 4 0  66 4 0  68 4 0  70 4 0  72 4 0  74 4 0  76 4 0  78 4 0  80 4 0  82 4 0  84 4 0  86 4 0  88 4 0  90 4 0  92 4 0  94 4 0  96 4 0  98 4 0  100 4 0  102 4 0  104 4 0  106 4 0  108 4 0  110 4 0  112 4 0  114 4 0  116 4 0  118 4 0  120 4 0  122 4 0  124 4 0  126 4 0  128 4 0  130 4 0  132 4 0  134 4 0  136 4 0  138 4 0  140 4 0  142 4 0  144 4 0  146 4 0  148 4 0  150 4 0  152 4 0  154 4 0  156 4 0  158 4 0  160 4 0  162 4 0  164 4 0  166 4 0  168 4 0  170 4 0  172 4 0  174 4 0  176 4 0  178 4 0  180 4 0  182 4 0  184 4 0  186 4 0  188 4 0  190 4 0  192 4 0  194 4 0  196 4 0  198 4 0  200 4 0  0 6 0  2 6 0  4 6 0  6 6 0  8 6 0  10 6 0  12 6 0  14 6 0  16 6 0  18 6 0  20 6 0  22 6 0  24 6 0  26 6 0  28 6 0  30 6 0  32 6 0  34 6 0  36 6 0  38 6 0  40 6 0  42 6 0  44 6 0  46 6 0  48 6 0  50 6 0  52 6 0  54 6 0  56 6 0  58 6 0  60 6 0  62 6 0  64 6 0  66 6 0  68 6 0  70 6 0  72 6 0  74 6 0  76 6 0  78 6 0  80 6 0  82 6 0  84 6 0  86 6 0  88 6 0  90 6 0  92 6 0  94 6 0  96 6 0  98 6 0  100 6 0  102 6 0  104 6 0  106 6 0  108 6 0  110 6 0  112 6 0  114 6 0  116 6 0  118 6 0  120 6 0  122 6 0  124 6 0  126 6 0  128 6 0  130 6 0  132 6 0  134 6 0  136 6 0  138 6 0  140 6 0  142 6 0  144 6 0  146 6 0  148 6 0  150 6 0  152 6 0  154 6 0  156 6 0  158 6 0  160 6 0  162 6 0  164 6 0  166 6 0  168 6 0  170 6 0  172 6 0  174 6 0  176 6 0  178 6 0  180 6 0  182 6 0  184 6 0  186 6 0  188 6 0  190 6 0  192 6 0  194 6 0  196 6 0  198 6 0  200 6 0  0 8 0  2 8 0  4 8 0  6 8 0  8 8 0  10 8 0  12 8 0  14 8 0  16 8 0  18 8 0  20 8 0  22 8 0  24 8 0  26 8 0  28 8 0  30 8 0  32 8 0  34 8 0  36 8 0  38 8 0  40 8 0  42 8 0  44 8 0  46 8 0  48 8 0  50 8 0  52 8 0  54 8 0  56 8 0  58 8 0  60 8 0  62 8 0  64 8 0  66 8 0  68 8 0  70 8 0  72 8 0  74 8 0  76 8 0  78 8 0  80 8 0  82 8 0  84 8 0  86 8 0  88 8 0  90 8 0  92 8 0  94 8 0  96 8 0  98 8 0  100 8 0  102 8 0  104 8 0  106 8 0  108 8 0  110 8 0  112 8 0  114 8 0  116 8 0  118 8 0  120 8 0  122 8 0  124 8 0  126 8 0  128 8 0  130 8 0  132 8 0  134 8 0  136 8 0  138 8 0  140 8 0  142 8 0  144 8 0  146 8 0  148 8 0  150 8 0  152 8 0  154 8 0  156 8 0  158 8 0  160 8 0  162 8 0  164 8 0  166 8 0  168 8 0  170 8 0  172 8 0  174 8 0  176 8 0  178 8 0  180 8 0  182 8 0  184 8 0  186 8 0  188 8 0  190 8 0  192 8 0  194 8 0  196 8 0  198 8 0  200 8 0  0 10 0  2 10 0  4 10 0  6 10 0  8 10 0  10 10 0  12 10 0  14 10 0  16 10 0  18 10 0  20 10 0  22 10 0  24 10 0  26 10 0  28 10 0  30 10 0  32 10 0  34 10 0  36 10 0  38 10 0  40 10 0  42 10 0  44 10 0  46 10 0  48 10 0  50 10 0  52 10 0  54 10 0  56 10 0  58 10 0  60 10 0  62 10 0  64 10 0  66 10 0  68 10 0  70 10 0  72 10 0  74 10 0  76 10 0  78 10 0  80 10 0  82 10 0  84 10 0  86 10 0  88 10 0  90 10 0  92 10 0  94 10 0  96 10 0  98 10 0  100 10 0  102 10 0  104 10 0  106 10 0  108 10 0  110 10 0  112 10 0  114 10 0  116 10 0  118 10 0  120 10 0  122 10 0  124 10 0  126 10 0  128 10 0  130 10 0  132 10 0  134 10 0  136 10 0  138 10 0  140 10 0  142 10 0  144 10 0  146 10 0  148 10 0  150 10 0  152 10 0  154 10 0  156 10 0  158 10 0  160 10 0  162 10 0  164 10 0  166 10 0  168 10 0  170 10 0  172 10 0  174 10 0  176 10 0  178 10 0  180 10 0  182 10 0  184 10 0  186 10 0  188 10 0  190 10 0  192 10 0  194 10 0  196 10 0  198 10 0  200 10 0  0 12 0  2 12 0  4 12 0  6 12 0  8 12 0  10 12 0  12 12 0  14 12 0  16 12 0  18 12 0  20 12 0  22 12 0  24 12 0  26 12 0  28 12 0  30 12 0  32 12 0  34 12 0  36 12 0  38 12 0  40 12 0  42 12 0  44 12 0  46 12 0  48 12 0  50 12 0  52 12 0  54 12 0  56 12 0  58 12 0  60 12 0  62 12 0  64 12 0  66 12 0  68 12 0  70 12 0  72 12 0  74 12 0  76 12 0  78 12 0  80 12 0  82 12 0  84 12 0  86 12 0  88 12 0  90 12 0  92 12 0  94 12 0  96 12 0  98 12 0  100 12 0  102 12 0  104 12 0  106 12 0  108 12 0  110 12 0  112 12 0  114 12 0  116 12 0  118 12 0  120 12 0  122 12 0  124 12 0  126 12 0  128 12 0  130 12 0  132 12 0  134 12 0  136 12 0  138 12 0  140 12 0  142 12 0  144 12 0  146 12 0  148 12 0  150 12 0  152 12 0  154 12 0  156 12 0  158 12 0  160 12 0  162 12 0  164 12 0  166 12 0  168 12 0  170 12 0  172 12 0  174 12 0  176 12 0  178 12 0  180 12 0  182 12 0  184 12 0  186 12 0  188 12 0  190 12 0  192 12 0  194 12 0  196 12 0  198 12 0  200 12 0  0 14 0  2 14 0  4 14 0  6 14 0  8 14 0  10 14 0  12 14 0  14 14 0  16 14 0  18 14 0  20 14 0  22 14 0  24 14 0  26 14 0  28 14 0  30 14 0  32 14 0  34 14 0  36 14 0  38 14 0  40 14 0  42 14 0  44 14 0  46 14 0  48 14 0  50 14 0  52 14 0  54 14 0  56 14 0  58 14 0  60 14 0  62 14 0  64 14 0  66 14 0  68 14 0  70 14 0  72 14 0  74 14 0  76 14 0  78 14 0  80 14 0  82 14 0  84 14 0  86 14 0  88 14 0  90 14 0  92 14 0  94 14 0  96 14 0  98 14 0  100 14 0  102 14 0  104 14 0  106 14 0  108 14 0  110 14 0  112 14 0  114 14 0  116 14 0  118 14 0  120 14 0  122 14 0  124 14 0  126 14 0  128 14 0  130 14 0  132 14 0  134 14 0  136 14 0  138 14 0  140 14 0  142 14 0  144 14 0  146 14 0  148 14 0  150 14 0  152 14 0  154 14 0  156 14 0  158 14 0  160 14 0  162 14 0  164 14 0  166 14 0  168 14 0  170 14 0  172 14 0  174 14 0  176 14 0  178 14 0  180 14 0  182 14 0  184 14 0  186 14 0  188 14 0  190 14 0  192 14 0  194 14 0  196 14 0  198 14 0  200 14 0  0 16 0  2 16 0  4 16 0  6 16 0  8 16 0  10 16 0  12 16 0  14 16 0  16 16 0  18 16 0  20 16 0  22 16 0  24 16 0  26 16 0  28 16 0  30 16 0  32 16 0  34 16 0  36 16 0  38 16 0  40 16 0  42 16 0  44 16 0  46 16 0  48 16 0  50 16 0  52 16 0  54 16 0  56 16 0  58 16 0  60 16 0  62 16 0  64 16 0  66 16 0  68 16 0  70 16 0  72 16 0  74 16 0  76 16 0  78 16 0  80 16 0  82 16 0  84 16 0  86 16 0  88 16 0  90 16 0  92 16 0  94 16 0  96 16 0  98 16 0  100 16 0  102 16 0  104 16 0  106 16 0  108 16 0  110 16 0  112 16 0  114 16 0  116 16 0  118 16 0  120 16 0  122 16 0  124 16 0  126 16 0  128 16 0  130 16 0  132 16 0  134 16 0  136 16 0  138 16 0  140 16 0  142 16 0  144 16 0  146 16 0  148 16 0  150 16 0  152 16 0  154 16 0  156 16 0  158 16 0  160 16 0  162 16 0  164 16 0  166 16 0  168 16 0  170 16 0  172 16 0  174 16 0  176 16 0  178 16 0  180 16 0  182 16 0  184 16 0  186 16 0  188 16 0  190 16 0  192 16 0  194 16 0  196 16 0  198 16 0  200 16 0  0 18 0  2 18 0  4 18 0  6 18 0  8 18 0  10 18 0  12 18 0  14 18 0  16 18 0  18 18 0  20 18 0  22 18 0  24 18 0  26 18 0  28 18 0  30 18 0  32 18 0  34 18 0  36 18 0  38 18 0  40 18 0  42 18 0  44 18 0  46 18 0  48 18 0  50 18 0  52 18 0  54 18 0  56 18 0  58 18 0  60 18 0  62 18 0  64 18 0  66 18 0  68 18 0  70 18 0  72 18 0  74 18 0  76 18 0  78 18 0  80 18 0  82 18 0  84 18 0  86 18 0  88 18 0  90 18 0  92 18 0  94 18 0  96 18 0  98 18 0  100 18 0  102 18 0  104 18 0  106 18 0  108 18 0  110 18 0  112 18 0  114 18 0  116 18 0  118 18 0  120 18 0  122 18 0  124 18 0  126 18 0  128 18 0  130 18 0  132 18 0  134 18 0  136 18 0  138 18 0  140 18 0  142 18 0  144 18 0  146 18 0  148 18 0  150 18 0  152 18 0  154 18 0  156 18 0  158 18 0  160 18 0  162 18 0  164 18 0  166 18 0  168 18 0  170 18 0  172 18 0  174 18 0  176 18 0  178 18 0  180 18 0  182 18 0  184 18 0  186 18 0  188 18 0  190 18 0  192 18 0  194 18 0  196 18 0  198 18 0  200 18 0  0 20 0  2 20 0  4 20 0  6 20 0  8 20 0  10 20 0  12 20 0  14 20 0  16 20 0  18 20 0  20 20 0  22 20 0  24 20 0  26 20 0  28 20 0  30 20 0  32 20 0  34 20 0  36 20 0  38 20 0  40 20 0  42 20 0  44 20 0  46 20 0  48 20 0  50 20 0  52 20 0  54 20 0  56 20 0  58 20 0  60 20 0  62 20 0  64 20 0  66 20 0  68 20 0  70 20 0  72 20 0  74 20 0  76 20 0  78 20 0  80 20 0  82 20 0  84 20 0  86 20 0  88 20 0  90 20 0  92 20 0  94 20 0  96 20 0  98 20 0  100 20 0  102 20 0  104 20 0  106 20 0  108 20 0  110 20 0  112 20 0  114 20 0  116 20 0  118 20 0  120 20 0  122 20 0  124 20 0  126 20 0  128 20 0  130 20 0  132 20 0  134 20 0  136 20 0  138 20 0  140 20 0  142 20 0  144 20 0  146 20 0  148 20 0  150 20 0  152 20 0  154 20 0  156 20 0
[...]
<PointData  Scalars="C"> 
<DataArray  type="Float64"  Name="C"  format="ascii">-4.4292606786991669e-11  1.8817411710853576e-10  -9.0773609224012376e-10  3.1479487815666015e-09  -8.1710045790654474e-09  1.7528953527953091e-08  -3.4574164790127436e-08  5.0092825977834784e-08  2.1165029031935237e-08  -2.8959578361361952e-07  4.5191563743775773e-07  -4.1438246717912808e-07  3.9594391799719539e-06  -1.8394093069157243e-05  3.5202350664487735e-05  1.4685996928329926e-05  -1.9159895020691751e-04  1.2611323028543017e-04  6.0126471263785542e-04  1.5073564927515270e-04  -8.0287493941992995e-04  -1.4496893723928467e-03  -1.8693218615218003e-03  -1.4793482313116390e-03  -1.9977640580901151e-04  9.5296439880933695e-04  1.3362612872067107e-03  8.1222684762260371e-04  1.5976468892704910e-04  -8.3575370624474710e-04  -1.2693624461378550e-03  -1.5282644245146997e-03  -1.8916281597838465e-03  -2.1122877939420896e-03  -1.3717877809597719e-03  1.0189685799639188e-03  1.6062326074759768e-03  6.8113468972954335e-04  -5.2452257025603416e-04  -1.4590730667124059e-04  4.6302349847633588e-05  -1.1981619395689512e-04  1.4448725968595519e-04  -1.1699856869327846e-05  -4.4282799154288691e-05  1.3183962727366893e-05  2.8091842490481005e-06  -1.3960327065796366e-06  -1.7243913791775972e-07  1.0197163748833078e-08  -7.8361309094692015e-08  -7.2107193305750886e-08  -1.2129714861063250e-07  9.9278623834324708e-07  -2.4610200935027070e-06  -2.7720943910323619e-06  3.9512453177267939e-05  -1.4318832711854136e-04  2.9385984495136310e-04  -2.5561925623123442e-04  -2.8817768240495104e-04  8.9685533026137544e-04  -2.9148526327536935e-04  -1.2229108036836179e-03  4.2408407808605252e-04  1.6810093140406876e-03  5.2389641937553195e-04  -1.5655228398821924e-03  -1.6046214386947243e-03  -1.4830564610702286e-03  -1.2795311609393616e-03  -9.2513999722920075e-04  8.1932084614069699e-05  1.0735270885231969e-03  1.5926942972090683e-03  1.1699171985456169e-03  5.2517324116139498e-05  -1.6762661788697669e-03  -2.4077077992587298e-03  -2.3364053480944380e-03  -1.9225290405847743e-03  3.6514652035741656e-04  2.0235135592318468e-03  1.2555501709151080e-03  -9.5275241634523516e-04  -1.1086720859438076e-03  4.5141015659421775e-04  3.1666860798422447e-04  -1.6996475518776859e-04  -2.6510301321603118e-05  2.5119607013382069e-05  -1.1930691874748640e-06  -1.8510583085643180e-06  6.7098812380636575e-07  -1.0537173919512744e-07  -2.5991379487839440e-07  -6.3267490849760602e-08  -7.1975369248510569e-08  1.2360448695622672e-06  -8.9706203184651299e-06  1.3064084736874710e-05  -7.0857056314815579e-12  -1.3339003381862155e-11  2.1173490035082853e-10  -9.3122210019400442e-10  1.9768345086444256e-09  -2.8894583556490959e-09  1.4340481043075466e-08  -9.8106742989739692e-08  3.5069831233389430e-07  -4.3688177755838621e-07  -1.8611850231202006e-06  1.3147372913151330e-05  -4.8233531303489089e-05  1.1536578719667046e-04  -1.4273489201940722e-04  -5.9332738394645951e-05  5.7213979588697486e-04  -5.3079382158282217e-04  -1.3746836971229915e-03  6.0966248302647544e-04  2.3348981715661443e-03  2.0555233709487050e-03  1.4142437330241339e-03  1.4667018947110924e-04  -9.4976262008807718e-04  -1.3678345460320126e-03  -9.9434882584936257e-04  -1.7516446499879628e-04  9.1687227390923980e-04  1.6832686754151922e-03  1.7072604091763256e-03  1.7886045945019920e-03  1.7974112066200462e-03  9.7818013025206406e-04  -3.4565637805261185e-04  -1.4950045229415094e-03  -1.4283105215591604e-03  3.4256481823647831e-04  1.2742594518231744e-03  2.8256361251528258e-04  -7.8421085410154624e-04  1.5821396776409378e-04  9.2407007348572730e-05  -2.3492118045615632e-05  1.7384865072206870e-05  -1.3324476049849383e-05  3.2567703082725601e-06  6.7106513999283684e-07  -9.6689172983130471e-08  8.9211565206409821e-08  1.2620378674487739e-07  3.5534178722126130e-08  6.0964224143392190e-08  -1.0132207323445073e-06  3.7696246438770311e-06  -5.9634045262098304e-07  -4.1643700893625576e-05  1.8020154068823488e-04  -4.1346357480125031e-04  4.8148851056355814e-04  1.6585359592471131e-04  -1.0428265996769107e-03  6.9894313677501356e-04  9.9949010645108884e-04  -5.3958161294944426e-04  -1.0440355489111338e-03  -9.0666162464674320e-04  5.8203515161054460e-04  1.3480074076322442e-03  1.4405768382834269e-03  1.3957523803432188e-03  1.4928912158509390e-03  8.1838058668925139e-04  -1.9774276671295999e-04  -1.0254333700201270e-03  -1.3410306664050564e-03  -1.2468411086513026e-03  -2.1688381629496653e-05  1.5965183543338471e-03  2.1714402486634763e-03  2.8985007430087570e-03  1.7097179226529999e-03  -1.5125893146760003e-03  -2.2536057162738455e-03  4.7332404567023421e-04  1.6224237967504352e-03  -4.3690123042702930e-04  -5.1780305685560416e-04  2.1368068414484684e-04  2.8900193860949745e-05  -3.2009699815490643e-05  4.5566963276062603e-06  1.8415191868602295e-06  -1.1161725849855998e-06  2.8303485391356812e-07  3.2799541486461339e-07  2.2674793541564669e-08  -1.0301149781483348e-07  -4.9127297146047749e-08  4.5228258602372466e-06  -1.3379537417599631e-05  -1.3584142048363755e-10  3.2647774645776622e-10  -1.3823336075648108e-09  4.5295871344883078e-09  -9.7673596556676748e-09  1.1005072370498056e-08  -3.2297148454389289e-09  4.1962203720311515e-08  -4.1203972491672352e-07  1.5959376056794515e-06  -2.9927154944189652e-06  -1.6156315316119855e-06  3.6150619286104918e-05  -1.5511877556887414e-04  2.8972505535281159e-04  -3.0239110001360840e-04  -5.1805262365363109e-04  1.4071482110953654e-03  1.2148243701890673e-03  -9.6944255107582098e-04  -2.1323703303396421e-03  -1.9373685983170670e-03  -1.1930407370189810e-03  -2.5119432259501585e-04  5.0364247226280764e-04  1.1883405984562925e-03  1.5055610209687516e-03  1.2087640423138902e-03  1.7701842217197346e-04  -1.5931851486716531e-03  -2.6252316841981200e-03  -2.3290804184284536e-03  -1.2308642549240863e-03  1.0386866878592318e-04  8.2245734660328553e-04  1.5762672352159881e-03  5.1039651928097172e-04  -7.2055977419133708e-04  -1.1658986162620239e-03  -7.4253862474674438e-05  9.0429004434915226e-04  -5.7665046802929199e-05  -2.1083897880611139e-04  1.0233225550565245e-04  -1.5406409748770325e-05  1.7563420107373644e-05  -7.2203881912837522e-06  7.7861125068050806e-07  -8.4618168246081664e-08  -3.0545362888460543e-07  -1.9637333118891891e-07  -1.9748951496264647e-08  -5.2920355998568330e-08  1.3042001897978660e-06  -6.9437470661684541e-06  1.2922200734889623e-05  2.3976097743866016e-05  -1.7099632502860123e-04  4.4890859077750014e-04  -6.4516700763270977e-04  2.9902539869884284e-04  5.4140152607636623e-04  -6.0757099706071935e-04  -3.6873610663729609e-04  2.1086947414310323e-04  5.9860768040286092e-04  7.4167987891557517e-04  -2.5051069349240257e-04  -1.3633874570017201e-03  -2.3023746325660280e-03  -2.5021052200905089e-03  -1.5847274062707791e-03  -2.7653912864632072e-04  7.2276814496282445e-04  1.2866048108696058e-03  1.1480692297917742e-03  8.1918970038003316e-04  1.5765998730931998e-04  -1.0968669033801048e-03  -1.6035477180802297e-03  -2.1231156215944639e-03  -1.8450915133718185e-03  9.0322842657626396e-04  2.7580896497767099e-03  1.2235281905142314e-04  -2.0834293359088328e-03  3.4984957511007475e-04  9.1123677888002726e-04  -3.3607719058733948e-04  -5.5233282569435472e-05  5.0024634914422416e-05  -1.1134617483123131e-05  -1.3902383294535585e-06  2.2601472880758681e-06  -7.2247839604398044e-07  -5.7396425506694987e-07  5.4777020926668518e-08  3.0738219114960159e-08  3.5957309526267306e-07  -5.1917487515868567e-06  1.9461175987119546e-05  4.0933589212004504e-10  -9.5543024410764131e-10  3.8225403589617099e-09  -1.2633268977741375e-08  2.8105149858431980e-08  -3.8039227055994043e-08  1.8738653342813195e-08  2.1210115746605089e-09  1.2862312863130399e-07  -1.1499818140488447e-06  4.3664504915205997e-06  -1.0123681565319175e-05  -1.4197965914154423e-05  1.5001339420958677e-04  -3.0771630475783299e-04  5.8872185823572473e-04  6.2707326214582850e-04  -8.1029432549420497e-04  -1.2053912905230007e-03  -1.0768209375200243e-03  -6.2490119903298484e-04  9.5159328566748384e-04  1.9855978456689710e-03  2.9952209464015000e-03  3.6673601334236083e-03  4.1238150676469751e-03  4.4319331100976375e-03  4.5736721900086199e-03  4.4873849123871368e-03  4.0562648697245645e-03  3.4573658464626391e-03  3.1390097645830552e-03  3.3604314399469817e-03  3.0727314544558336e-03  -4.6664634712728951e-04  -2.9289586848283661e-03  3.5534436867261127e-04  1.0344363082804599e-03  1.0638445293989767e-03  -4.4099517502963051e-04  -9.6703952064058289e-04  8.9971413253420060e-05  4.2768647586213175e-04  -1.4394988998423056e-04  2.1585598908564002e-05  -2.8675601711724639e-06  1.4787615093289300e-05  -3.2501457327571762e-06  1.5272618113355422e-06  4.8342889328189361e-07  2.4001765210517985e-07  2.5002231494207754e-08  6.7256142359127149e-08  -1.0491041810635271e-06  9.1042708966729657e-06  -2.7304809130832229e-05  1.8925794164046180e-05  1.1053855580412316e-04  -3.6175828625918715e-04  5.8740240051898213e-04  -4.7805166883209361e-04  -1.6749403658160845e-04  4.9930336833584282e-04  2.8599660830034033e-04  -2.2268895969297311e-04  -2.2552166715172402e-03  -1.0087136406051627e-03  1.9659660940651493e-03  3.1387935262515779e-03  3.2765053623361588e-03  3.6316604370935025e-03  4.1117847573170566e-03  4.3868991037181813e-03  4.3920587817706013e-03  4.2577293351915508e-03  3.9766652403256716e-03  3.5608564530395397e-03  2.9114897430594783e-03  2.0296789712289601e-03  1.1824184593553437e-03  -6.0054353552111705e-05  3.5647226998166179e-04  -1.1394285295169670e-03  -1.7381401107737571e-03  6.7396611665866430e-04  2.2065814071658019e-03  -6.4409889382946776e-04  -1.1420799383873212e-03  6.3473081415493533e-04  5.7422348460957375e-05  -8.9996539755029351e-05  2.3158747411967631e-05  -8.7995826048397497e-07  -3.7306520381107563e-06  1.4860927617745048e-06  9.1054787788145715e-07  -1.9673573944293717e-07  1.6396624228574812e-08  -7.1229758452155595e-07  6.2288713152692116e-06  -2.4918990542548593e-05  -1.2198645875020123e-09  2.7841109818460806e-09  -1.0904904123454759e-08  3.4843647003687678e-08  -7.6927714946939326e-08  1.0051996648375813e-07  -5.5425844869743442e-08  -3.3521985973915134e-08  5.2832999381373719e-07  -2.2244852448598510e-06  -1.6257567064097325e-06  1.8003680548772067e-05  -3.5964671804988683e-05  -1.4468030595486258e-04  2.3138570414993342e-04  -2.5382462915636588e-04  -5.4128964690581074e-04  -6.4465375649475185e-04  -1.1542157869616654e-03  1.1667714711322392e-03  3.0787887594021751e-03  4.5819759391549694e-03  5.9312545948264237e-03  8.3955238817754810e-03  1.1816991314875321e-02  1.5236252318671874e-02  1.7822188605784474e-02  1.9300439829767063e-02  1.9635530470980451e-02  1.8836902991864704e-02  1.6924809474330196e-02  1.4015700088022651e-02  1.0515103941937345e-02  7.2391149669668621e-03  4.6957140665132343e-03  3.2970244753153179e-03  3.1504972307671991e-03  6.3843127205973440e-04  -2.4895098933407863e-03  1.1009045064796189e-03  1.2462869646874041e-03  -3.8692191342012494e-04  -8.7896339835574343e-04  2.0969402955717809e-04  3.0537901565717348e-05  -3.2528512436332707e-06  -6.2142579216337544e-06  8.1799033094740372e-06  -4.3362943749957554e-06  4.0475585062585397e-07  -5.3504660610049044e-07  -2.9778021292889733e-08  -8.7876198677744363e-08  9.0410819803346377e-07  -6.4643815109931431e-06  4.3308303061731756e-05  -7.3893784151467899e-05  2.0155201314202094e-05  1.8665906126110612e-04  -5.0809107743096129e-04  6.9991999520254593e-04  3.0891629849416462e-04  -1.8403773712710534e-03  -3.9943160969010646e-04  2.0276961623964611e-03  3.3359431123528333e-03  4.6503131717114034e-03  6.9615787608148039e-03  1.0158512330187944e-02  1.3634802582401826e-02  1.6516463566668069e-02  1.8395758150817825e-02  1.9177805220779675e-02  1.8849859466234978e-02  1.7402579143419764e-02  1.4867542568737107e-02  1.1510996202305312e-02  8.1780894586493159e-03  5.8371492312974957e-03  4.6013368295404122e-03  3.5335690288015300e-03  2.0948279828230986e-03  4.0430951229564373e-04  1.8973509930050072e-04  -1.4025345338461029e-03  -9.5573661410707053e-04  1.4688190516940164e-03  6.9053973825063683e-04  -9.8331406527258410e-04  1.6657286053947188e-04  1.4639938885812424e-04  -5.8203921184253767e-05  7.9182256221402075e-06  5.4059833750100381e-06  -2.4526770586081678e-06  -1.3453064172142290e-06  4.7498641031168996e-07  -1.4004797310783832e-07  1.2543335290168578e-06  -8.1108238553525099e-06  2.9559444846252871e-05  3.0899799546171614e-09  -7.3229943408345033e-09  2.8551258211151703e-08  -9.0729848764765121e-08  1.9225454653348535e-07  -2.0209083264277112e-07  -6.6382807674626999e-09  3.8099726098037679e-07  -2.3586493314615170e-06  1.1798039153617873e-05  -1.3008898881014848e-05  -2.6512717846289250e-05  1.3948714215347038e-04  2.3531525426250704e-04  5.5552796162744564e-04  -2.9965913802517194e-04  -1.2936943706561360e-03  1.5511105623135985e-03  3.4897250712238740e-03  6.3502264801699945e-03  1.3486770588658758e-02  3.3810818865535067e-02  7.5988561921290873e-02  1.3361335523817630e-01  1.8744203006865018e-01  2.2643057822237808e-01  2.5077610495798142e-01  2.6340546773664764e-01  2.6622914510104712e-01  2.5979549376461081e-01  2.4336321204206809e-01  2.1477878410447254e-01  1.7137505445725168e-01  1.1534833778748430e-01  6.1215380104644675e-02  2.6073632192344303e-02  1.0663884833819796e-02  5.3104131184495600e-03  3.4879622790232466e-03  2.1168860273477930e-03  -2.0419146674631379e-03  8.7867799854024801e-04  1.0607017097549664e-03  -6.6876567187207434e-04  -2.2512657470235049e-04  9.1750950681916877e-05  2.3872301811595807e-05  -1.4408773723915483e-06  6.7032773645461663e-06  -2.8425014679262469e-06  1.8199948656721398e-06  -2.8199651063654579e-07  4.0140813317456499e-08  -1.0640526208720621e-07  2.6219385767214082e-06  -4.6449068358111728e-05  1.5285062536117412e-04  -2.4787579945808892e-04  2.3053293865524431e-04  7.9483493114592698e-04  -1.7359840175942148e-03  6.0218889802166411e-04  2.7917234018557061e-03  5.1411977128384924e-03  1.0205897566553757e-02  2.4877832227592184e-02  5.8698056385963628e-02  1.1174007871800520e-01  1.6758850007241524e-01  2.1124298824209992e-01  2.3999410913252262e-01  2.5646233836630294e-01  2.6291603062216778e-01  2.6017660106292845e-01  2.4768866550924268e-01  2.2346203849682461e-01  1.8451967789764970e-01  1.3087301961955652e-01  7.3963429605999581e-02  3.2818775413224366e-02  1.3153997002253044e-02  6.3184512937529596e-03  4.1670525521823208e-03  2.7911418731949209e-03  1.0200067711468466e-03  -2.3583539519995820e-04  -1.2841415400291455e-03  5.0012369999999048e-04  1.0780715121742265e-03  -6.1445697535262190e-04  -4.6674589059955030e-05  1.3150482228823084e-04  -3.0404203533692500e-05  -5.3613544658876858e-06  3.8138897569440768e-06  1.9792745853077862e-06  -8.9987643653924979e-07  4.4461434630850454e-07  -2.0378793949054698e-06  1.0936418654664389e-05  -3.3387620035614625e-05  -7.0853820251029137e-09  1.6954273640116339e-08  -6.7970428553358138e-08  2.1925375410206498e-07  -4.3036400704736833e-07  3.3348146384328012e-07  8.5818700352787662e-07  -1.8436025775156734e-06  8.7427732488709751e-06  -3.4375660349771299e-05  5.1872846649636772e-05  2.5845955043175539e-05  -1.3908087512811630e-04  6.5585113008206068e-05  -1.7815236958411385e-03  1.2256882480841860e-03  3.3247040666062335e-03  7.5035751959736637e-03  2.1716419829662135e-02  7.0438442029286411e-02  1.7760789249735548e-01  3.4613807644262712e-01  5.4422501875463436e-01  6.9855574286693267e-01  7.8337044322657268e-01  8.2403813334210529e-01  8.4357484711905451e-01  8.5238351586674876e-01  8.5424133706918548e-01  8.4993058759738016e-01  8.3800496784530065e-01  8.1331938345704591e-01  7.6245450162859918e-01  6.5943481026581852e-01  4.8807615069542531e-01  2.9440337565040525e-01  1.4347489465913693e-01  5.3261142197193329e-02  1.6447205356526200e-02  6.6266052941483132e-03  3.9323483617893324e-03  2.4044966130971359e-03  -1.7976910906899190e-03  1.2177734009873361e-03  1.7752297806616316e-04  -4.4832778983918146e-04  7.4638479122193389e-05  2.6899103258840509e-05  -2.8307302564970342e-06  6.1879691653703539e-06  -4.3708578515741863e-06  1.2097585939700485e-06  5.2937833050144776e-07  4.7002819430434253e-07  1.2819612950541323e-05  3.9700182432578399e-05  -2.3394260127854630e-04  6.5472054808943150e-04  -9.0424770624105506e-04  -3.6578059267569152e-04  2.5763730052584151e-03  6.3137396951108565e-03  1.5873402563313363e-02  5.1435453241894247e-02  1.3903646853084542e-01  2.8633291589986071e-01  4.7771115567856148e-01  6.5102111953763597e-01  7.5721540561909118e-01  8.0995301416430099e-01  8.3542561005857363e-01  8.4764438890309890e-01  8.5205786941606987e-01  8.5022026037279907e-01  8.4133570452636630e-01  8.2148052091633683e-01  7.7990660899639330e-01  6.9326094442515773e-01  5.3722288292065046e-01  3.4006719858150791e-01  1.7404592947140496e-01  6.8858491081440348e-02  2.1281292011063505e-02  7.5663331870019753e-03  4.2923489159830503e-03  2.6601656743710906e-03  1.0199648793644850e-03  -9.2101328695223035e-04  -3.3916480159422864e-04  9.7408217380651966e-04  -2.8575950486900778e-04  -1.2356732519386784e-04  8.9703853735143444e-05  2.8529009675522448e-06  -4.5688749168564126e-06  -1.9600633626112155e-06  1.3153929421821413e-06  -9.3227551943342356e-07  3.1278030996769926e-06  -1.4778634437671711e-05  3.6493521039140637e-05  1.5153393779267449e-08  -3.6152126879122564e-08  1.4798341877191708e-07  -4.7408783984880799e-07  9.5823587335579851e-07  -9.8033292302213801e-08  -3.2457246896684346e-06  9.6106072808931218e-06  -2.1377274252334413e-05  8.5794837905512375e-05  -1.5686926624265465e-04  1.7708651968420798e-04  4.5000684760752756e-05  3.7133288396269510e-05  2.0923835157919302e-03  6.1951042883154391e-03  1.8962208989163787e-02  7.6184833058690296e-02  2.3529657624621547e-01  5.0124777134701470e-01  7.4591494231185440e-01  8.8466991378890603e-01  9.5134966403692101e-01  9.7998712984850389e-01  9.9075101846930713e-01  9.9470611996005587e-01  9.9626309783059663e-01  9.9687621892432232e-01  9.9698492928136917e-01  9.9666998180149879e-01  9.9577210617214773e-01  9.9365838983321664e-01  9.8830382481783763e-01  9.7387054245573390e-01  9.3718021215875547e-01  8.5619642614206426e-01  6.9272074103813142e-01  4.2846590818481528e-01  1.8208374317694057e-01  5.3008754802946048e-02  1.3900812510307578e-02  6.1025631601334977e-03  3.7918980650440215e-03  9.0451314910401800e-04  -3.8494059493052608e-04  7.3260605450485388e-04  -3.8579453733764894e-04  7.6782457911207363e-05  8.2902157717959928e-06  -1.1162662058368127e-05  1.1460251696381777e-05  -4.5965479036196255e-06  -2.4870374396035953e-06  4.9314965077617836e-06  -3.4062543669268513e-05  2.5870224573585464e-05  2.5073775466079236e-04  -6.7949665831098778e-04  2.4218392636568523e-03  5.2232079691633508e-03  1.3577690392734871e-02  5.2049610025886948e-02  1.7843095256998889e-01  4.2085311190588481e-01  6.8514875142769904e-01  8.5121074736750790e-01  9.3430332035235386e-01  9.7246888220501226e-01  9.8766489169090577e-01  9.9331586809883132e-01  9.9553112138372513e-01  9.9646213109996040e-01  9.9678677654175740e-01  9.9667753969843764e-01  9.9605187437992559e-01  9.9445024594176656e-01  9.9035546473564340e-01  9.7920546342696890e-01  9.4973879857507693e-01  8.8178749993198724e-01  7.4127730396821179e-01  4.9554647422460141e-01  2.3161180821169661e-01  7.4827344737102314e-02  1.8714816165023875e-02  6.4481377125818196e-03  3.8228668873737976e-03  2.2663156713712447e-03  -2.8837485846770072e-04  -9.8325662773930960e-04  8.9761638035917076e-04  -8.7265893104562634e-05  -9.4394385198276167e-05  2.0556513956115383e-05  1.1303983816890998e-05  1.4500426463209603e-06  -2.1940785501173280e-08  1.2413234317726783e-06  -4.4589671066232738e-06  1.9745214306152104e-05  -3.9063171113565729e-05  -3.3196861739594072e-08  7.7289752803238644e-08  -2.9674480122983000e-07  1.0189730975632714e-06  -1.7547690073809321e-06  -5.1359262300640727e-08  1.2657463314263209e-05  -2.5839829011767296e-05  5.3483810070846932e-05  -1.66017649