<?xml version="1.0"?>
<VTKFile type="UnstructuredGrid"  version="0.1"  >
<UnstructuredGrid>
<Piece  NumberOfPoints="11156" NumberOfCells="22000">
<Points>
<DataArray  type="Float64"  NumberOfComponents="3"  format="ascii">0 0 0  2 0 0  4 0 0  6 0 0  8 0 0  10 0 0  12 0 0  14 0 0  16 0 0  18 0 0  20 0 0  22 0 0  24 0 0  26 0 0  28 0 0  30 0 0  32 0 0  34 0 0  36 0 0  38 0 0  40 0 0  42 0 0  44 0 0  46 0 0  48 0 0  50 0 0  52 0 0  54 0 0  56 0 0  58 0 0  60 0 0  62 0 0  64 0 0  66 0 0  68 0 0  70 0 0  72 0 0  74 0 0  76 0 0  78 0 0  80 0 0  82 0 0  84 0 0  86 0 0  88 0 0  90 0 0  92 0 0  94 0 0  96 0 0  98 0 0  100 0 0  102 0 0  104 0 0  106 0 0  108 0 0  110 0 0  112 0 0  114 0 0  116 0 0  118 0 0  120 0 0  122 0 0  124 0 0  126 0 0  128 0 0  130 0 0  132 0 0  134 0 0  136 0 0  138 0 0  140 0 0  142 0 0  144 0 0  146 0 0  148 0 0  150 0 0  152 0 0  154 0 0  156 0 0  158 0 0  160 0 0  162 0 0  164 0 0  166 0 0  168 0 0  170 0 0  172 0 0  174 0 0  176 0 0  178 0 0  180 0 0  182 0 0  184 0 0  186 0 0  188 0 0  190 0 0  192 0 0  194 0 0  196 0 0  198 0 0  200 0 0  0 2 0  2 2 0  4 2 0  6 2 0  8 2 0  10 2 0  12 2 0  14 2 0  16 2 0  18 2 0  20 2 0  22 2 0  24 2 0  26 2 0  28 2 0  30 2 0  32 2 0  34 2 0  36 2 0  38 2 0  40 2 0  42 2 0  44 2 0  46 2 0  48 2 0  50 2 0  52 2 0  54 2 0  56 2 0  58 2 0  60 2 0  62 2 0  64 2 0  66 2 0  68 2 0  70 2 0  72 2 0  74 2 0  76 2 0  78 2 0  80 2 0  82 2 0  84 2 0  86 2 0  88 2 0  90 2 0  92 2 0  94 2 0  96 2 0  98 2 0  100 2 0  102 2 0  104 2 0  106 2 0  108 2 0  110 2 0  112 2 0  114 2 0  116 2 0  118 2 0  120 2 0  122 2 0  124 2 0  126 2 0  128 2 0  130 2 0  132 2 0  134 2 0  136 2 0  138 2 0  140 2 0  142 2 0  144 2 0  146 2 0  148 2 0  150 2 0  152 2 0  154 2 0  156 2 0  158 2 0  160 2 0  162 2 0  164 2 0  166 2 0  168 2 0  170 2 0  172 2 0  174 2 0  176 2 0  178 2 0  180 2 0  182 2 0  184 2 0  186 2 0  188 2 0  190 2 0  192 2 0  194 2 0  196 2 0  198 2 0  200 2 0  0 4 0  2 4 0  4 4 0  6 4 0  8 4 0  10 4 0  12 4 0  14 4 0  16 4 0  18 4 0  20 4 0  22 4 0  24 4 0  26 4 0  28 4 0  30 4 0  32 4 0  34 4 0  36 4 0  38 4 0  40 4 0  42 4 0  44 4 0  46 4 0  48 4 0  50 4 0  52 4 0  54 4 0  56 4 0  58 4 0  60 4 0  62 4 0  64 4 0  66 4 0  68 4 0  70 4 0  72 4 0  74 4 0  76 4 0  78 4 0  80 4 0  82 4 0  84 4 0  86 4 0  88 4 0  90 4 0  92 4 0  94 4 0  96 4 0  98 4 0  100 4 0  102 4 0  104 4 0  106 4 0  108 4 0  110 4 0  112 4 0  114 4 0  116 4 0  118 4 0  120 4 0  122 4 0  124 4 0  126 4 0  128 4 0  130 4 0  132 4 0  134 4 0  136 4 0  138 4 0  140 4 0  142 4 0  144 4 0  146 4 0  148 4 0  150 4 0  152 4 0  154 4 0  156 4 0  158 4 0  160 4 0  162 4 0  164 4 0  166 4 0  168 4 0  170 4 0  172 4 0  174 4 0  176 4 0  178 4 0  180 4 0  182 4 0  184 4 0  186 4 0  188 4 0  190 4 0  192 4 0  194 4 0  196 4 0  198 4 0  200 4 0  0 6 0  2 6 0  4 6 0  6 6 0  8 6 0  10 6 0  12 6 0  14 6 0  16 6 0  18 6 0  20 6 0  22 6 0  24 6 0  26 6 0  28 6 0  30 6 0  32 6 0  34 6 0  36 6 0  38 6 0  40 6 0  42 6 0  44 6 0  46 6 0  48 6 0  50 6 0  52 6 0  54 6 0  56 6 0  58 6 0  60 6 0  62 6 0  64 6 0  66 6 0  68 6 0  70 6 0  72 6 0  74 6 0  76 6 0  78 6 0  80 6 0  82 6 0  84 6 0  86 6 0  88 6 0  90 6 0  92 6 0  94 6 0  96 6 0  98 6 0  100 6 0  102 6 0  104 6 0  106 6 0  108 6 0  110 6 0  112 6 0  114 6 0  116 6 0  118 6 0  120 6 0  122 6 0  124 6 0  126 6 0  128 6 0  130 6 0  132 6 0  134 6 0  136 6 0  138 6 0  140 6 0  142 6 0  144 6 0  146 6 0  148 6 0  150 6 0  152 6 0  154 6 0  156 6 0  158 6 0  160 6 0  162 6 0  164 6 0  166 6 0  168 6 0  170 6 0  172 6 0  174 6 0  176 6 0  178 6 0  180 6 0  182 6 0  184 6 0  186 6 0  188 6 0  190 6 0  192 6 0  194 6 0  196 6 0  198 6 0  200 6 0  0 8 0  2 8 0  4 8 0  6 8 0  8 8 0  10 8 0  12 8 0  14 8 0  16 8 0  18 8 0  20 8 0  22 8 0  24 8 0  26 8 0  28 8 0  30 8 0  32 8 0  34 8 0  36 8 0  38 8 0  40 8 0  42 8 0  44 8 0  46 8 0  48 8 0  50 8 0  52 8 0  54 8 0  56 8 0  58 8 0  60 8 0  62 8 0  64 8 0  66 8 0  68 8 0  70 8 0  72 8 0  74 8 0  76 8 0  78 8 0  80 8 0  82 8 0  84 8 0  86 8 0  88 8 0  90 8 0  92 8 0  94 8 0  96 8 0  98 8 0  100 8 0  102 8 0  104 8 0  106 8 0  108 8 0  110 8 0  112 8 0  114 8 0  116 8 0  118 8 0  120 8 0  122 8 0  124 8 0  126 8 0  128 8 0  130 8 0  132 8 0  134 8 0  136 8 0  138 8 0  140 8 0  142 8 0  144 8 0  146 8 0  148 8 0  150 8 0  152 8 0  154 8 0  156 8 0  158 8 0  160 8 0  162 8 0  164 8 0  166 8 0  168 8 0  170 8 0  172 8 0  174 8 0  176 8 0  178 8 0  180 8 0  182 8 0  184 8 0  186 8 0  188 8 0  190 8 0  192 8 0  194 8 0  196 8 0  198 8 0  200 8 0  0 10 0  2 10 0  4 10 0  6 10 0  8 10 0  10 10 0  12 10 0  14 10 0  16 10 0  18 10 0  20 10 0  22 10 0  24 10 0  26 10 0  28 10 0  30 10 0  32 10 0  34 10 0  36 10 0  38 10 0  40 10 0  42 10 0  44 10 0  46 10 0  48 10 0  50 10 0  52 10 0  54 10 0  56 10 0  58 10 0  60 10 0  62 10 0  64 10 0  66 10 0  68 10 0  70 10 0  72 10 0  74 10 0  76 10 0  78 10 0  80 10 0  82 10 0  84 10 0  86 10 0  88 10 0  90 10 0  92 10 0  94 10 0  96 10 0  98 10 0  100 10 0  102 10 0  104 10 0  106 10 0  108 10 0  110 10 0  112 10 0  114 10 0  116 10 0  118 10 0  120 10 0  122 10 0  124 10 0  126 10 0  128 10 0  130 10 0  132 10 0  134 10 0  136 10 0  138 10 0  140 10 0  142 10 0  144 10 0  146 10 0  148 10 0  150 10 0  152 10 0  154 10 0  156 10 0  158 10 0  160 10 0  162 10 0  164 10 0  166 10 0  168 10 0  170 10 0  172 10 0  174 10 0  176 10 0  178 10 0  180 10 0  182 10 0  184 10 0  186 10 0  188 10 0  190 10 0  192 10 0  194 10 0  196 10 0  198 10 0  200 10 0  0 12 0  2 12 0  4 12 0  6 12 0  8 12 0  10 12 0  12 12 0  14 12 0  16 12 0  18 12 0  20 12 0  22 12 0  24 12 0  26 12 0  28 12 0  30 12 0  32 12 0  34 12 0  36 12 0  38 12 0  40 12 0  42 12 0  44 12 0  46 12 0  48 12 0  50 12 0  52 12 0  54 12 0  56 12 0  58 12 0  60 12 0  62 12 0  64 12 0  66 12 0  68 12 0  70 12 0  72 12 0  74 12 0  76 12 0  78 12 0  80 12 0  82 12 0  84 12 0  86 12 0  88 12 0  90 12 0  92 12 0  94 12 0  96 12 0  98 12 0  100 12 0  102 12 0  104 12 0  106 12 0  108 12 0  110 12 0  112 12 0  114 12 0  116 12 0  118 12 0  120 12 0  122 12 0  124 12 0  126 12 0  128 12 0  130 12 0  132 12 0  134 12 0  136 12 0  138 12 0  140 12 0  142 12 0  144 12 0  146 12 0  148 12 0  150 12 0  152 12 0  154 12 0  156 12 0  158 12 0  160 12 0  162 12 0  164 12 0  166 12 0  168 12 0  170 12 0  172 12 0  174 12 0  176 12 0  178 12 0  180 12 0  182 12 0  184 12 0  186 12 0  188 12 0  190 12 0  192 12 0  194 12 0  196 12 0  198 12 0  200 12 0  0 14 0  2 14 0  4 14 0  6 14 0  8 14 0  10 14 0  12 14 0  14 14 0  16 14 0  18 14 0  20 14 0  22 14 0  24 14 0  26 14 0  28 14 0  30 14 0  32 14 0  34 14 0  36 14 0  38 14 0  40 14 0  42 14 0  44 14 0  46 14 0  48 14 0  50 14 0  52 14 0  54 14 0  56 14 0  58 14 0  60 14 0  62 14 0  64 14 0  66 14 0  68 14 0  70 14 0  72 14 0  74 14 0  76 14 0  78 14 0  80 14 0  82 14 0  84 14 0  86 14 0  88 14 0  90 14 0  92 14 0  94 14 0  96 14 0  98 14 0  100 14 0  102 14 0  104 14 0  106 14 0  108 14 0  110 14 0  112 14 0  114 14 0  116 14 0  118 14 0  120 14 0  122 14 0  124 14 0  126 14 0  128 14 0  130 14 0  132 14 0  134 14 0  136 14 0  138 14 0  140 14 0  142 14 0  144 14 0  146 14 0  148 14 0  150 14 0  152 14 0  154 14 0  156 14 0  158 14 0  160 14 0  162 14 0  164 14 0  166 14 0  168 14 0  170 14 0  172 14 0  174 14 0  176 14 0  178 14 0  180 14 0  182 14 0  184 14 0  186 14 0  188 14 0  190 14 0  192 14 0  194 14 0  196 14 0  198 14 0  200 14 0  0 16 0  2 16 0  4 16 0  6 16 0  8 16 0  10 16 0  12 16 0  14 16 0  16 16 0  18 16 0  20 16 0  22 16 0  24 16 0  26 16 0  28 16 0  30 16 0  32 16 0  34 16 0  36 16 0  38 16 0  40 16 0  42 16 0  44 16 0  46 16 0  48 16 0  50 16 0  52 16 0  54 16 0  56 16 0  58 16 0  60 16 0  62 16 0  64 16 0  66 16 0  68 16 0  70 16 0  72 16 0  74 16 0  76 16 0  78 16 0  80 16 0  82 16 0  84 16 0  86 16 0  88 16 0  90 16 0  92 16 0  94 16 0  96 16 0  98 16 0  100 16 0  102 16 0  104 16 0  106 16 0  108 16 0  110 16 0  112 16 0  114 16 0  116 16 0  118 16 0  120 16 0  122 16 0  124 16 0  126 16 0  128 16 0  130 16 0  132 16 0  134 16 0  136 16 0  138 16 0  140 16 0  142 16 0  144 16 0  146 16 0  148 16 0  150 16 0  152 16 0  154 16 0  156 16 0  158 16 0  160 16 0  162 16 0  164 16 0  166 16 0  168 16 0  170 16 0  172 16 0  174 16 0  176 16 0  178 16 0  180 16 0  182 16 0  184 16 0  186 16 0  188 16 0  190 16 0  192 16 0  194 16 0  196 16 0  198 16 0  200 16 0  0 18 0  2 18 0  4 18 0  6 18 0  8 18 0  10 18 0  12 18 0  14 18 0  16 18 0  18 18 0  20 18 0  22 18 0  24 18 0  26 18 0  28 18 0  30 18 0  32 18 0  34 18 0  36 18 0  38 18 0  40 18 0  42 18 0  44 18 0  46 18 0  48 18 0  50 18 0  52 18 0  54 18 0  56 18 0  58 18 0  60 18 0  62 18 0  64 18 0  66 18 0  68 18 0  70 18 0  72 18 0  74 18 0  76 18 0  78 18 0  80 18 0  82 18 0  84 18 0  86 18 0  88 18 0  90 18 0  92 18 0  94 18 0  96 18 0  98 18 0  100 18 0  102 18 0  104 18 0  106 18 0  108 18 0  110 18 0  112 18 0  114 18 0  116 18 0  118 18 0  120 18 0  122 18 0  124 18 0  126 18 0  128 18 0  130 18 0  132 18 0  134 18 0  136 18 0  138 18 0  140 18 0  142 18 0  144 18 0  146 18 0  148 18 0  150 18 0  152 18 0  154 18 0  156 18 0  158 18 0  160 18 0  162 18 0  164 18 0  166 18 0  168 18 0  170 18 0  172 18 0  174 18 0  176 18 0  178 18 0  180 18 0  182 18 0  184 18 0  186 18 0  188 18 0  190 18 0  192 18 0  194 18 0  196 18 0  198 18 0  200 18 0  0 20 0  2 20 0  4 20 0  6 20 0  8 20 0  10 20 0  12 20 0  14 20 0  16 20 0  18 20 0  20 20 0  22 20 0  24 20 0  26 20 0  28 20 0  30 20 0  32 20 0  34 20 0  36 20 0  38 20 0  40 20 0  42 20 0  44 20 0  46 20 0  48 20 0  50 20 0  52 20 0  54 20 0  56 20 0  58 20 0  60 20 0  62 20 0  64 20 0  66 20 0  68 20 0  70 20 0  72 20 0  74 20 0  76 20 0  78 20 0  80 20 0  82 20 0  84 20 0  86 20 0  88 20 0  90 20 0  92 20 0  94 20 0  96 20 0  98 20 0  100 20 0  102 20 0  104 20 0  106 20 0  108 20 0  110 20 0  112 20 0  114 20 0  116 20 0  118 20 0  120 20 0  122 20 0  124 20 0  126 20 0  128 20 0  130 20 0  132 20 0  134 20 0  136 20 0  138 20 0  140 20 0  142 20 0  144 20 0  146 20 0  148 20 0  150 20 0  152 20 0  154 20 0  156 20 0
[...]
<PointData  Vectors="v"> 
<DataArray  type="Float64"  Name="v"  NumberOfComponents="3" format="ascii">0.0000000000000000e+00 0.0000000000000000e+00 0.0000000000000000e+00  0.0000000000000000e+00 0.0000000000000000e+00 0.0000000000000000e+00  0.0000000000000000e+00 0.0000000000000000e+00 0.0000000000000000e+00  0.0000000000000000e+00 0.0000000000000000e+00 0.0000000000000000e+00  0.0000000000000000e+00 0.0000000000000000e+00 0.0000000000000000e+00  0.0000000000000000e+00 0.0000000000000000e+00 0.0000000000000000e+00  0.0000000000000000e+00 0.0000000000000000e+00 0.0000000000000000e+00  0.0000000000000000e+00 0.0000000000000000e+00 0.0000000000000000e+00  0.0000000000000000e+00 0.0000000000000000e+00 0.0000000000000000e+00  0.0000000000000000e+00 0.0000000000000000e+00 0.0000000000000000e+00  0.0000000000000000e+00 0.0000000000000000e+00 0.0000000000000000e+00  0.0000000000000000e+00 0.0000000000000000e+00 0.0000000000000000e+00  0.0000000000000000e+00 0.0000000000000000e+00 0.0000000000000000e+00  0.0000000000000000e+00 0.0000000000000000e+00 0.0000000000000000e+00  0.0000000000000000e+00 0.0000000000000000e+00 0.0000000000000000e+00  0.0000000000000000e+00 0.0000000000000000e+00 0.0000000000000000e+00  0.0000000000000000e+00 0.0000000000000000e+00 0.0000000000000000e+00  0.0000000000000000e+00 0.0000000000000000e+00 0.0000000000000000e+00  0.0000000000000000e+00 0.0000000000000000e+00 0.0000000000000000e+00  0.0000000000000000e+00 0.0000000000000000e+00 0.0000000000000000e+00  0.0000000000000000e+00 0.0000000000000000e+00 0.0000000000000000e+00  0.0000000000000000e+00 0.0000000000000000e+00 0.0000000000000000e+00  0.0000000000000000e+00 0.0000000000000000e+00 0.0000000000000000e+00  0.0000000000000000e+00 0.0000000000000000e+00 0.0000000000000000e+00  0.0000000000000000e+00 0.0000000000000000e+00 0.0000000000000000e+00  0.0000000000000000e+00 0.0000000000000000e+00 0.0000000000000000e+00  0.0000000000000000e+00 0.0000000000000000e+00 0.0000000000000000e+00  0.0000000000000000e+00 0.0000000000000000e+00 0.0000000000000000e+00  0.0000000000000000e+00 0.0000000000000000e+00 0.0000000000000000e+00  0.0000000000000000e+00 0.0000000000000000e+00 0.0000000000000000e+00  0.0000000000000000e+00 0.0000000000000000e+00 0.0000000000000000e+00  0.0000000000000000e+00 0.0000000000000000e+00 0.0000000000000000e+00  0.0000000000000000e+00 0.0000000000000000e+00 0.0000000000000000e+00  0.0000000000000000e+00 0.0000000000000000e+00 0.0000000000000000e+00  0.0000000000000000e+00 0.0000000000000000e+00 0.0000000000000000e+00  0.0000000000000000e+00 0.0000000000000000e+00 0.0000000000000000e+00  0.0000000000000000e+00 0.0000000000000000e+00 0.0000000000000000e+00  0.0000000000000000e+00 0.0000000000000000e+00 0.0000000000000000e+00  0.0000000000000000e+00 0.0000000000000000e+00 0.0000000000000000e+00  0.0000000000000000e+00 0.0000000000000000e+00 0.0000000000000000e+00  0.0000000000000000e+00 0.0000000000000000e+00 0.0000000000000000e+00  0.0000000000000000e+00 0.0000000000000000e+00 0.0000000000000000e+00  0.0000000000000000e+00 0.0000000000000000e+00 0.0000000000000000e+00  0.0000000000000000e+00 0.0000000000000000e+00 0.0000000000000000e+00  0.0000000000000000e+00 0.0000000000000000e+00 0.0000000000000000e+00  0.0000000000000000e+00 0.0000000000000000e+00 0.0000000000000000e+00  0.0000000000000000e+00 0.0000000000000000e+00 0.0000000000000000e+00  0.0000000000000000e+00 0.0000000000000000e+00 0.0000000000000000e+00  0.0000000000000000e+00 0.0000000000000000e+00 0.0000000000000000e+00  0.0000000000000000e+00 0.0000000000000000e+00 0.0000000000000000e+00  0.0000000000000000e+00 0.0000000000000000e+00 0.0000000000000000e+00  0.0000000000000000e+00 0.0000000000000000e+00 0.0000000000000000e+00  0.0000000000000000e+00 0.0000000000000000e+00 0.0000000000000000e+00  0.0000000000000000e+00 0.0000000000000000e+00 0.0000000000000000e+00  0.0000000000000000e+00 0.0000000000000000e+00 0.0000000000000000e+00  0.0000000000000000e+00 0.0000000000000000e+00 0.0000000000000000e+00  0.0000000000000000e+00 0.0000000000000000e+00 0.0000000000000000e+00  0.0000000000000000e+00 0.0000000000000000e+00 0.0000000000000000e+00  0.0000000000000000e+00 0.0000000000000000e+00 0.0000000000000000e+00  0.0000000000000000e+00 0.0000000000000000e+00 0.0000000000000000e+00  0.0000000000000000e+00 0.0000000000000000e+00 0.0000000000000000e+00  0.0000000000000000e+00 0.0000000000000000e+00 0.0000000000000000e+00  0.0000000000000000e+00 0.0000000000000000e+00 0.0000000000000000e+00  0.0000000000000000e+00 0.0000000000000000e+00 0.0000000000000000e+00  0.0000000000000000e+00 0.0000000000000000e+00 0.0000000000000000e+00  0.0000000000000000e+00 0.0000000000000000e+00 0.0000000000000000e+00  0.0000000000000000e+00 0.0000000000000000e+00 0.0000000000000000e+00  0.0000000000000000e+00 0.0000000000000000e+00 0.0000000000000000e+00  0.0000000000000000e+00 0.0000000000000000e+00 0.0000000000000000e+00  0.0000000000000000e+00 0.0000000000000000e+00 0.0000000000000000e+00  0.0000000000000000e+00 0.0000000000000000e+00 0.0000000000000000e+00  0.0000000000000000e+00 0.0000000000000000e+00 0.0000000000000000e+00  0.0000000000000000e+00 0.0000000000000000e+00 0.0000000000000000e+00  0.0000000000000000e+00 0.0000000000000000e+00 0.0000000000000000e+00  0.0000000000000000e+00 0.0000000000000000e+00 0.0000000000000000e+00  0.0000000000000000e+00 0.0000000000000000e+00 0.0000000000000000e+00  0.0000000000000000e+00 0.0000000000000000e+00 0.0000000000000000e+00  0.0000000000000000e+00 0.0000000000000000e+00 0.0000000000000000e+00  0.0000000000000000e+00 0.0000000000000000e+00 0.0000000000000000e+00  0.0000000000000000e+00 0.0000000000000000e+00 0.0000000000000000e+00  0.0000000000000000e+00 0.0000000000000000e+00 0.0000000000000000e+00  0.0000000000000000e+00 0.0000000000000000e+00 0.0000000000000000e+00  0.0000000000000000e+00 0.0000000000000000e+00 0.0000000000000000e+00  0.0000000000000000e+00 0.0000000000000000e+00 0.0000000000000000e+00  0.0000000000000000e+00 0.0000000000000000e+00 0.0000000000000000e+00  0.0000000000000000e+00 0.0000000000000000e+00 0.0000000000000000e+00  0.0000000000000000e+00 0.0000000000000000e+00 0.0000000000000000e+00  0.0000000000000000e+00 0.0000000000000000e+00 0.0000000000000000e+00  0.0000000000000000e+00 0.0000000000000000e+00 0.0000000000000000e+00  0.0000000000000000e+00 0.0000000000000000e+00 0.0000000000000000e+00  0.0000000000000000e+00 0.0000000000000000e+00 0.0000000000000000e+00  0.0000000000000000e+00 0.0000000000000000e+00 0.0000000000000000e+00  0.0000000000000000e+00 0.0000000000000000e+00 0.0000000000000000e+00  0.0000000000000000e+00 0.0000000000000000e+00 0.0000000000000000e+00  0.0000000000000000e+00 0.0000000000000000e+00 0.0000000000000000e+00  0.0000000000000000e+00 0.0000000000000000e+00 0.0000000000000000e+00  0.0000000000000000e+00 0.0000000000000000e+00 0.0000000000000000e+00  0.0000000000000000e+00 0.0000000000000000e+00 0.0000000000000000e+00  0.0000000000000000e+00 0.0000000000000000e+00 0.0000000000000000e+00  0.0000000000000000e+00 0.0000000000000000e+00 0.0000000000000000e+00  0.0000000000000000e+00 0.0000000000000000e+00 0.0000000000000000e+00  0.0000000000000000e+00 0.0000000000000000e+00 0.0000000000000000e+00  -3.5642451304831335e-07 3.5808322045498335e-07 0.0000000000000000e+00  -1.9629675899860376e-06 1.1634718554524433e-06 0.0000000000000000e+00  -4.8495288946120269e-06 1.7788235341642004e-06 0.0000000000000000e+00  -8.5547802892936390e-06 2.0778344925031787e-06 0.0000000000000000e+00  -1.2528187282511167e-05 2.0815989999083501e-06 0.0000000000000000e+00  -1.6298180710492881e-05 1.8636416942279364e-06 0.0000000000000000e+00  -1.9546598643982695e-05 1.5212517299861766e-06 0.0000000000000000e+00  -2.2144416919233505e-05 1.1623968549052733e-06 0.0000000000000000e+00  -2.4163905803544383e-05 8.9550687856489634e-07 0.0000000000000000e+00  -2.5870651473284429e-05 8.1909085982712757e-07 0.0000000000000000e+00  -2.7694846159092022e-05 1.0136111719764845e-06 0.0000000000000000e+00  -3.0190700002089931e-05 1.5349520369400433e-06 0.0000000000000000e+00  -3.3994639753650921e-05 2.4285817033284410e-06 0.0000000000000000e+00  -3.9795484804753513e-05 3.7208301021873245e-06 0.0000000000000000e+00  -4.8297428113101883e-05 5.4050487230834901e-06 0.0000000000000000e+00  -6.0119373531988602e-05 7.4253066440132068e-06 0.0000000000000000e+00  -7.5697637164922702e-05 9.7013811711723665e-06 0.0000000000000000e+00  -9.5377168373324985e-05 1.2232652662619527e-05 0.0000000000000000e+00  -1.1932612213889751e-04 1.4686412141526878e-05 0.0000000000000000e+00  -1.4659504902334394e-04 1.6235864809416797e-05 0.0000000000000000e+00  -1.7557028323691198e-04 1.7567915375756263e-05 0.0000000000000000e+00  -2.0700323952914173e-04 2.0076582231381830e-05 0.0000000000000000e+00  -2.4243901148242555e-04 2.2582906883979291e-05 0.0000000000000000e+00  -2.7957433646696718e-04 2.2515609410486986e-05 0.0000000000000000e+00  -3.1349014219644931e-04 1.9534484438382122e-05 0.0000000000000000e+00  -3.4107253886900128e-04 1.5285546739915691e-05 0.0000000000000000e+00  -3.6161053306069070e-04 1.0802005309309986e-05 0.0000000000000000e+00  -3.7521701602395631e-04 6.3061712500264888e-06 0.0000000000000000e+00  -3.8223837837429790e-04 2.0823483425641178e-06 0.0000000000000000e+00  -3.8338373269811870e-04 -1.6255219057447371e-06 0.0000000000000000e+00  -3.7904067394232949e-04 -5.3961296311030893e-06 0.0000000000000000e+00  -3.6808303183349684e-04 -1.0133106007543410e-05 0.0000000000000000e+00  -3.4899127736218573e-04 -1.4802282973171274e-05 0.0000000000000000e+00  -3.2354111866482883e-04 -1.7026940851022476e-05 0.0000000000000000e+00  -2.9636965251277466e-04 -1.6716656483549966e-05 0.0000000000000000e+00  -2.6977643996152321e-04 -1.6042588822893255e-05 0.0000000000000000e+00  -2.4320545197362674e-04 -1.5798080239091166e-05 0.0000000000000000e+00  -2.1667621118890248e-04 -1.5290006879520521e-05 0.0000000000000000e+00  -1.9089441697035334e-04 -1.4469876852124135e-05 0.0000000000000000e+00  -1.6626364225617285e-04 -1.3553730566099858e-05 0.0000000000000000e+00  -1.4297212501883629e-04 -1.2579778888562372e-05 0.0000000000000000e+00  -1.2119276384948669e-04 -1.1562968603475730e-05 0.0000000000000000e+00  -1.0105185621042270e-04 -1.0536610448225865e-05 0.0000000000000000e+00  -8.2585232453219335e-05 -9.5405681841559917e-06 0.0000000000000000e+00  -6.5751309201110138e-05 -8.6109023941661430e-06 0.0000000000000000e+00  -5.0445644552430000e-05 -7.7741899715339486e-06 0.0000000000000000e+00  -3.6497917017619168e-05 -7.0645976885760529e-06 0.0000000000000000e+00  -2.3664061235465770e-05 -6.5200671382918626e-06 0.0000000000000000e+00  -1.1624830605131455e-05 -6.1763273912881602e-06 0.0000000000000000e+00  4.4028291021606574e-16 -6.0587146835189230e-06 0.0000000000000000e+00  1.1624830606023891e-05 -6.1763273913008572e-06 0.0000000000000000e+00  2.3664061236393915e-05 -6.5200671383174379e-06 0.0000000000000000e+00  3.6497917018606808e-05 -7.0645976886143896e-06 0.0000000000000000e+00  5.0445644553500412e-05 -7.7741899715847536e-06 0.0000000000000000e+00  6.5751309202286064e-05 -8.6109023942293011e-06 0.0000000000000000e+00  8.2585232454522573e-05 -9.5405681842310371e-06 0.0000000000000000e+00  1.0105185621187433e-04 -1.0536610448312747e-05 0.0000000000000000e+00  1.2119276385110699e-04 -1.1562968603574396e-05 0.0000000000000000e+00  1.4297212502064466e-04 -1.2579778888672132e-05 0.0000000000000000e+00  1.6626364225818662e-04 -1.3553730566219944e-05 0.0000000000000000e+00  1.9089441697258777e-04 -1.4469876852253533e-05 0.0000000000000000e+00  2.1667621119136817e-04 -1.5290006879657076e-05 0.0000000000000000e+00  2.4320545197632944e-04 -1.5798080239231611e-05 0.0000000000000000e+00  2.6977643996446026e-04 -1.6042588823031647e-05 0.0000000000000000e+00  2.9636965251593164e-04 -1.6716656483680440e-05 0.0000000000000000e+00  3.2354111866818129e-04 -1.7026940851138696e-05 0.0000000000000000e+00  3.4899127736569654e-04 -1.4802282973264049e-05 0.0000000000000000e+00  3.6808303183711157e-04 -1.0133106007598998e-05 0.0000000000000000e+00  3.7904067394597496e-04 -5.3961296311104348e-06 0.0000000000000000e+00  3.8338373270171018e-04 -1.6255219056996449e-06 0.0000000000000000e+00  3.8223837837775271e-04 2.0823483426602971e-06 0.0000000000000000e+00  3.7521701602719862e-04 6.3061712501686074e-06 0.0000000000000000e+00  3.6161053306365518e-04 1.0802005309489914e-05 0.0000000000000000e+00  3.4107253887163746e-04 1.5285546740122384e-05 0.0000000000000000e+00  3.1349014219872381e-04 1.9534484438603283e-05 0.0000000000000000e+00  2.7957433646886594e-04 2.2515609410710555e-05 0.0000000000000000e+00  2.4243901148395178e-04 2.2582906884193455e-05 0.0000000000000000e+00  2.0700323953031603e-04 2.0076582231576640e-05 0.0000000000000000e+00  1.7557028323776948e-04 1.7567915375925879e-05 0.0000000000000000e+00  1.4659504902392664e-04 1.6235864809559095e-05 0.0000000000000000e+00  1.1932612213924895e-04 1.4686412141642948e-05 0.0000000000000000e+00  9.5377168373487805e-05 1.2232652662711477e-05 0.0000000000000000e+00  7.5697637164935536e-05 9.7013811712432378e-06 0.0000000000000000e+00  6.0119373531886125e-05 7.4253066440664013e-06 0.0000000000000000e+00  4.8297428112912364e-05 5.4050487231220580e-06 0.0000000000000000e+00  3.9795484804501470e-05 3.7208301022138709e-06 0.0000000000000000e+00  3.3994639753356560e-05 2.4285817033452736e-06 0.0000000000000000e+00  3.0190700001769888e-05 1.5349520369486614e-06 0.0000000000000000e+00  2.7694846158760429e-05 1.0136111719780386e-06 0.0000000000000000e+00  2.5870651472954950e-05 8.1909085982200588e-07 0.0000000000000000e+00  2.4163905803229371e-05 8.9550687855360624e-07 0.0000000000000000e+00  2.2144416918944467e-05 1.1623968548881385e-06 0.0000000000000000e+00  1.9546598643729768e-05 1.5212517299644830e-06 0.0000000000000000e+00  1.6298180710284392e-05 1.8636416942026534e-06 0.0000000000000000e+00  1.2528187282351698e-05 2.0815989998812916e-06 0.0000000000000000e+00  8.5547802891842091e-06 2.0778344924770748e-06 0.0000000000000000e+00  4.8495288945482835e-06 1.7788235341419818e-06 0.0000000000000000e+00  1.9629675899583104e-06 1.1634718554375311e-06 0.0000000000000000e+00  3.5642451304118854e-07 3.5808322044980125e-07 0.0000000000000000e+00  0.0000000000000000e+00 0.0000000000000000e+00 0.0000000000000000e+00  0.0000000000000000e+00 0.0000000000000000e+00 0.0000000000000000e+00  -1.2039150693467888e-06 1.9931484671980344e-06 0.0000000000000000e+00  -4.7209023680449352e-06 4.6034048358766398e-06 0.0000000000000000e+00  -1.0137968333149204e-05 6.5766107497663206e-06 0.0000000000000000e+00  -1.6727471118400806e-05 7.5458956225643616e-06 0.0000000000000000e+00  -2.3667657954680724e-05 7.5450665781760529e-06 0.0000000000000000e+00  -3.0239224857493725e-05 6.7996944345747722e-06 0.0000000000000000e+00  -3.5950047022818907e-05 5.6341052191991023e-06 0.0000000000000000e+00  -4.0604634786568998e-05 4.4185828444669451e-06 0.0000000000000000e+00  -4.4331081199200995e-05 3.5288795900311256e-06 0.0000000000000000e+00  -4.7567422103134191e-05 3.3051906817713473e-06 0.0000000000000000e+00  -5.1011740585190216e-05 4.0108723449864737e-06 0.0000000000000000e+00  -5.5522990015247951e-05 5.8284349378836451e-06 0.0000000000000000e+00  -6.2030965485450541e-05 8.8305853777015851e-06 0.0000000000000000e+00  -7.1467417482211452e-05 1.3096433950721990e-05 0.0000000000000000e+00  -8.4690437143484826e-05 1.8560959780669314e-05 0.0000000000000000e+00  -1.0238302543112433e-04 2.4816842309248078e-05 0.0000000000000000e+00  -1.2460192469533797e-04 3.1471141201123524e-05 0.0000000000000000e+00  -1.5071846796114034e-04 3.8552329564198725e-05 0.0000000000000000e+00  -1.8104354084181820e-04 4.5344153713603794e-05 0.0000000000000000e+00  -2.1437184832150347e-04 4.8465625252964147e-05 0.0000000000000000e+00  -2.4435119605722072e-04 4.8836881152355086e-05 0.0000000000000000e+00  -2.7039689317478533e-04 5.3164006030808951e-05 0.0000000000000000e+00  -2.9653859639444799e-04 5.7815583064025129e-05 0.0000000000000000e+00  -3.2137252975683698e-04 5.4418560599657529e-05 0.0000000000000000e+00  -3.4040156999140341e-04 4.4501659437534085e-05 0.0000000000000000e+00  -3.5310835870400393e-04 3.3687694459281643e-05 0.0000000000000000e+00  -3.6200012370655131e-04 2.3987562294345026e-05 0.0000000000000000e+00  -3.6946236192989961e-04 1.4896991298392382e-05 0.0000000000000000e+00  -3.7692390758604319e-04 6.4375691801011565e-06 0.0000000000000000e+00  -3.8508785071736731e-04 -8.7332236073247807e-07 0.0000000000000000e+00  -3.9367308234632825e-04 -8.4469571382482009e-06 0.0000000000000000e+00  -3.9937627662337916e-04 -1.9742579198164617e-05 0.0000000000000000e+00  -3.9643226992344005e-04 -3.3560324942025073e-05 0.0000000000000000e+00  -3.8453951457757737e-04 -4.0956233722320861e-05 0.0000000000000000e+00  -3.7007254262251077e-04 -4.0831949762057686e-05 0.0000000000000000e+00  -3.5384067482605323e-04 -4.1587439403028354e-05 0.0000000000000000e+00  -3.3188239024859665e-04 -4.3653800623197503e-05 0.0000000000000000e+00  -3.0584783418439749e-04 -4.4062008154131551e-05 0.0000000000000000e+00  -2.7797046315954771e-04 -4.3207443489991463e-05 0.0000000000000000e+00  -2.4876745212048753e-04 -4.1834374189928954e-05 0.0000000000000000e+00  -2.1894714899213004e-04 -4.0014307337472712e-05 0.0000000000000000e+00  -1.8936542948235659e-04 -3.7704917963473589e-05 0.0000000000000000e+00  -1.6065939995235296e-04 -3.5091199827691842e-05 0.0000000000000000e+00  -1.3325924571503146e-04 -3.2392491618336234e-05 0.0000000000000000e+00  -1.0741822995846336e-04 -2.9725146717960759e-05 0.0000000000000000e+00  -8.3244361416227246e-05 -2.7227905957676278e-05 0.0000000000000000e+00  -6.0699838333234879e-05 -2.5045211720719073e-05 0.0000000000000000e+00  -3.9576697048543467e-05 -2.3336104662183683e-05 0.0000000000000000e+00  -1.9507672624127431e-05 -2.2244078756074720e-05 0.0000000000000000e+00  7.9412811794915590e-16 -2.1868220517505987e-05 0.0000000000000000e+00  1.9507672625734707e-05 -2.2244078756118938e-05 0.0000000000000000e+00  3.9576697050206843e-05 -2.3336104662272015e-05 0.0000000000000000e+00  6.0699838334990839e-05 -2.5045211720850834e-05 0.0000000000000000e+00  8.3244361418110695e-05 -2.7227905957850177e-05 0.0000000000000000e+00  1.0741822996050732e-04 -2.9725146718174723e-05 0.0000000000000000e+00  1.3325924571726559e-04 -3.2392491618588088e-05 0.0000000000000000e+00  1.6065939995480347e-04 -3.5091199827979494e-05 0.0000000000000000e+00  1.8936542948504547e-04 -3.7704917963794242e-05 0.0000000000000000e+00  2.1894714899507435e-04 -4.0014307337822713e-05 0.0000000000000000e+00  2.4876745212369813e-04 -4.1834374190303288e-05 0.0000000000000000e+00  2.7797046316302681e-04 -4.3207443490382718e-05 0.0000000000000000e+00  3.0584783418813701e-04 -4.4062008154529853e-05 0.0000000000000000e+00  3.3188239025257535e-04 -4.3653800623589320e-05 0.0000000000000000e+00  3.5384067483023608e-04 -4.1587439403393913e-05 0.0000000000000000e+00  3.7007254262684384e-04 -4.0831949762375987e-05 0.0000000000000000e+00  3.8453951458199229e-04 -4.0956233722576841e-05 0.0000000000000000e+00  3.9643226992786581e-04 -3.3560324942197163e-05 0.0000000000000000e+00  3.9937627662773564e-04 -1.9742579198223378e-05 0.0000000000000000e+00  3.9367308235054032e-04 -8.4469571381743379e-06 0.0000000000000000e+00  3.8508785072137415e-04 -8.7332236052673133e-07 0.0000000000000000e+00  3.7692390758980337e-04 6.4375691804242564e-06 0.0000000000000000e+00  3.6946236193338906e-04 1.4896991298815782e-05 0.0000000000000000e+00  3.6200012370975470e-04 2.3987562294849560e-05 0.0000000000000000e+00  3.5310835870690758e-04 3.3687694459846079e-05 0.0000000000000000e+00  3.4040156999399113e-04 4.4501659438137301e-05 0.0000000000000000e+00  3.2137252975908865e-04 5.4418560600275538e-05 0.0000000000000000e+00  2.9653859639634626e-04 5.7815583064631808e-05 0.0000000000000000e+00  2.7039689317632316e-04 5.3164006031377479e-05 0.0000000000000000e+00  2.4435119605840429e-04 4.8836881152865813e-05 0.