<?xml version="1.0"?>
<VTKFile type="UnstructuredGrid"  version="0.1"  >
<UnstructuredGrid>
<Piece  NumberOfPoints="11156" NumberOfCells="22000">
<Points>
<DataArray  type="Float64"  NumberOfComponents="3"  format="ascii">0 0 0  2 0 0  4 0 0  6 0 0  8 0 0  10 0 0  12 0 0  14 0 0  16 0 0  18 0 0  20 0 0  22 0 0  24 0 0  26 0 0  28 0 0  30 0 0  32 0 0  34 0 0  36 0 0  38 0 0  40 0 0  42 0 0  44 0 0  46 0 0  48 0 0  50 0 0  52 0 0  54 0 0  56 0 0  58 0 0  60 0 0  62 0 0  64 0 0  66 0 0  68 0 0  70 0 0  72 0 0  74 0 0  76 0 0  78 0 0  80 0 0  82 0 0  84 0 0  86 0 0  88 0 0  90 0 0  92 0 0  94 0 0  96 0 0  98 0 0  100 0 0  102 0 0  104 0 0  106 0 0  108 0 0  110 0 0  112 0 0  114 0 0  116 0 0  118 0 0  120 0 0  122 0 0  124 0 0  126 0 0  128 0 0  130 0 0  132 0 0  134 0 0  136 0 0  138 0 0  140 0 0  142 0 0  144 0 0  146 0 0  148 0 0  150 0 0  152 0 0  154 0 0  156 0 0  158 0 0  160 0 0  162 0 0  164 0 0  166 0 0  168 0 0  170 0 0  172 0 0  174 0 0  176 0 0  178 0 0  180 0 0  182 0 0  184 0 0  186 0 0  188 0 0  190 0 0  192 0 0  194 0 0  196 0 0  198 0 0  200 0 0  0 2 0  2 2 0  4 2 0  6 2 0  8 2 0  10 2 0  12 2 0  14 2 0  16 2 0  18 2 0  20 2 0  22 2 0  24 2 0  26 2 0  28 2 0  30 2 0  32 2 0  34 2 0  36 2 0  38 2 0  40 2 0  42 2 0  44 2 0  46 2 0  48 2 0  50 2 0  52 2 0  54 2 0  56 2 0  58 2 0  60 2 0  62 2 0  64 2 0  66 2 0  68 2 0  70 2 0  72 2 0  74 2 0  76 2 0  78 2 0  80 2 0  82 2 0  84 2 0  86 2 0  88 2 0  90 2 0  92 2 0  94 2 0  96 2 0  98 2 0  100 2 0  102 2 0  104 2 0  106 2 0  108 2 0  110 2 0  112 2 0  114 2 0  116 2 0  118 2 0  120 2 0  122 2 0  124 2 0  126 2 0  128 2 0  130 2 0  132 2 0  134 2 0  136 2 0  138 2 0  140 2 0  142 2 0  144 2 0  146 2 0  148 2 0  150 2 0  152 2 0  154 2 0  156 2 0  158 2 0  160 2 0  162 2 0  164 2 0  166 2 0  168 2 0  170 2 0  172 2 0  174 2 0  176 2 0  178 2 0  180 2 0  182 2 0  184 2 0  186 2 0  188 2 0  190 2 0  192 2 0  194 2 0  196 2 0  198 2 0  200 2 0  0 4 0  2 4 0  4 4 0  6 4 0  8 4 0  10 4 0  12 4 0  14 4 0  16 4 0  18 4 0  20 4 0  22 4 0  24 4 0  26 4 0  28 4 0  30 4 0  32 4 0  34 4 0  36 4 0  38 4 0  40 4 0  42 4 0  44 4 0  46 4 0  48 4 0  50 4 0  52 4 0  54 4 0  56 4 0  58 4 0  60 4 0  62 4 0  64 4 0  66 4 0  68 4 0  70 4 0  72 4 0  74 4 0  76 4 0  78 4 0  80 4 0  82 4 0  84 4 0  86 4 0  88 4 0  90 4 0  92 4 0  94 4 0  96 4 0  98 4 0  100 4 0  102 4 0  104 4 0  106 4 0  108 4 0  110 4 0  112 4 0  114 4 0  116 4 0  118 4 0  120 4 0  122 4 0  124 4 0  126 4 0  128 4 0  130 4 0  132 4 0  134 4 0  136 4 0  138 4 0  140 4 0  142 4 0  144 4 0  146 4 0  148 4 0  150 4 0  152 4 0  154 4 0  156 4 0  158 4 0  160 4 0  162 4 0  164 4 0  166 4 0  168 4 0  170 4 0  172 4 0  174 4 0  176 4 0  178 4 0  180 4 0  182 4 0  184 4 0  186 4 0  188 4 0  190 4 0  192 4 0  194 4 0  196 4 0  198 4 0  200 4 0  0 6 0  2 6 0  4 6 0  6 6 0  8 6 0  10 6 0  12 6 0  14 6 0  16 6 0  18 6 0  20 6 0  22 6 0  24 6 0  26 6 0  28 6 0  30 6 0  32 6 0  34 6 0  36 6 0  38 6 0  40 6 0  42 6 0  44 6 0  46 6 0  48 6 0  50 6 0  52 6 0  54 6 0  56 6 0  58 6 0  60 6 0  62 6 0  64 6 0  66 6 0  68 6 0  70 6 0  72 6 0  74 6 0  76 6 0  78 6 0  80 6 0  82 6 0  84 6 0  86 6 0  88 6 0  90 6 0  92 6 0  94 6 0  96 6 0  98 6 0  100 6 0  102 6 0  104 6 0  106 6 0  108 6 0  110 6 0  112 6 0  114 6 0  116 6 0  118 6 0  120 6 0  122 6 0  124 6 0  126 6 0  128 6 0  130 6 0  132 6 0  134 6 0  136 6 0  138 6 0  140 6 0  142 6 0  144 6 0  146 6 0  148 6 0  150 6 0  152 6 0  154 6 0  156 6 0  158 6 0  160 6 0  162 6 0  164 6 0  166 6 0  168 6 0  170 6 0  172 6 0  174 6 0  176 6 0  178 6 0  180 6 0  182 6 0  184 6 0  186 6 0  188 6 0  190 6 0  192 6 0  194 6 0  196 6 0  198 6 0  200 6 0  0 8 0  2 8 0  4 8 0  6 8 0  8 8 0  10 8 0  12 8 0  14 8 0  16 8 0  18 8 0  20 8 0  22 8 0  24 8 0  26 8 0  28 8 0  30 8 0  32 8 0  34 8 0  36 8 0  38 8 0  40 8 0  42 8 0  44 8 0  46 8 0  48 8 0  50 8 0  52 8 0  54 8 0  56 8 0  58 8 0  60 8 0  62 8 0  64 8 0  66 8 0  68 8 0  70 8 0  72 8 0  74 8 0  76 8 0  78 8 0  80 8 0  82 8 0  84 8 0  86 8 0  88 8 0  90 8 0  92 8 0  94 8 0  96 8 0  98 8 0  100 8 0  102 8 0  104 8 0  106 8 0  108 8 0  110 8 0  112 8 0  114 8 0  116 8 0  118 8 0  120 8 0  122 8 0  124 8 0  126 8 0  128 8 0  130 8 0  132 8 0  134 8 0  136 8 0  138 8 0  140 8 0  142 8 0  144 8 0  146 8 0  148 8 0  150 8 0  152 8 0  154 8 0  156 8 0  158 8 0  160 8 0  162 8 0  164 8 0  166 8 0  168 8 0  170 8 0  172 8 0  174 8 0  176 8 0  178 8 0  180 8 0  182 8 0  184 8 0  186 8 0  188 8 0  190 8 0  192 8 0  194 8 0  196 8 0  198 8 0  200 8 0  0 10 0  2 10 0  4 10 0  6 10 0  8 10 0  10 10 0  12 10 0  14 10 0  16 10 0  18 10 0  20 10 0  22 10 0  24 10 0  26 10 0  28 10 0  30 10 0  32 10 0  34 10 0  36 10 0  38 10 0  40 10 0  42 10 0  44 10 0  46 10 0  48 10 0  50 10 0  52 10 0  54 10 0  56 10 0  58 10 0  60 10 0  62 10 0  64 10 0  66 10 0  68 10 0  70 10 0  72 10 0  74 10 0  76 10 0  78 10 0  80 10 0  82 10 0  84 10 0  86 10 0  88 10 0  90 10 0  92 10 0  94 10 0  96 10 0  98 10 0  100 10 0  102 10 0  104 10 0  106 10 0  108 10 0  110 10 0  112 10 0  114 10 0  116 10 0  118 10 0  120 10 0  122 10 0  124 10 0  126 10 0  128 10 0  130 10 0  132 10 0  134 10 0  136 10 0  138 10 0  140 10 0  142 10 0  144 10 0  146 10 0  148 10 0  150 10 0  152 10 0  154 10 0  156 10 0  158 10 0  160 10 0  162 10 0  164 10 0  166 10 0  168 10 0  170 10 0  172 10 0  174 10 0  176 10 0  178 10 0  180 10 0  182 10 0  184 10 0  186 10 0  188 10 0  190 10 0  192 10 0  194 10 0  196 10 0  198 10 0  200 10 0  0 12 0  2 12 0  4 12 0  6 12 0  8 12 0  10 12 0  12 12 0  14 12 0  16 12 0  18 12 0  20 12 0  22 12 0  24 12 0  26 12 0  28 12 0  30 12 0  32 12 0  34 12 0  36 12 0  38 12 0  40 12 0  42 12 0  44 12 0  46 12 0  48 12 0  50 12 0  52 12 0  54 12 0  56 12 0  58 12 0  60 12 0  62 12 0  64 12 0  66 12 0  68 12 0  70 12 0  72 12 0  74 12 0  76 12 0  78 12 0  80 12 0  82 12 0  84 12 0  86 12 0  88 12 0  90 12 0  92 12 0  94 12 0  96 12 0  98 12 0  100 12 0  102 12 0  104 12 0  106 12 0  108 12 0  110 12 0  112 12 0  114 12 0  116 12 0  118 12 0  120 12 0  122 12 0  124 12 0  126 12 0  128 12 0  130 12 0  132 12 0  134 12 0  136 12 0  138 12 0  140 12 0  142 12 0  144 12 0  146 12 0  148 12 0  150 12 0  152 12 0  154 12 0  156 12 0  158 12 0  160 12 0  162 12 0  164 12 0  166 12 0  168 12 0  170 12 0  172 12 0  174 12 0  176 12 0  178 12 0  180 12 0  182 12 0  184 12 0  186 12 0  188 12 0  190 12 0  192 12 0  194 12 0  196 12 0  198 12 0  200 12 0  0 14 0  2 14 0  4 14 0  6 14 0  8 14 0  10 14 0  12 14 0  14 14 0  16 14 0  18 14 0  20 14 0  22 14 0  24 14 0  26 14 0  28 14 0  30 14 0  32 14 0  34 14 0  36 14 0  38 14 0  40 14 0  42 14 0  44 14 0  46 14 0  48 14 0  50 14 0  52 14 0  54 14 0  56 14 0  58 14 0  60 14 0  62 14 0  64 14 0  66 14 0  68 14 0  70 14 0  72 14 0  74 14 0  76 14 0  78 14 0  80 14 0  82 14 0  84 14 0  86 14 0  88 14 0  90 14 0  92 14 0  94 14 0  96 14 0  98 14 0  100 14 0  102 14 0  104 14 0  106 14 0  108 14 0  110 14 0  112 14 0  114 14 0  116 14 0  118 14 0  120 14 0  122 14 0  124 14 0  126 14 0  128 14 0  130 14 0  132 14 0  134 14 0  136 14 0  138 14 0  140 14 0  142 14 0  144 14 0  146 14 0  148 14 0  150 14 0  152 14 0  154 14 0  156 14 0  158 14 0  160 14 0  162 14 0  164 14 0  166 14 0  168 14 0  170 14 0  172 14 0  174 14 0  176 14 0  178 14 0  180 14 0  182 14 0  184 14 0  186 14 0  188 14 0  190 14 0  192 14 0  194 14 0  196 14 0  198 14 0  200 14 0  0 16 0  2 16 0  4 16 0  6 16 0  8 16 0  10 16 0  12 16 0  14 16 0  16 16 0  18 16 0  20 16 0  22 16 0  24 16 0  26 16 0  28 16 0  30 16 0  32 16 0  34 16 0  36 16 0  38 16 0  40 16 0  42 16 0  44 16 0  46 16 0  48 16 0  50 16 0  52 16 0  54 16 0  56 16 0  58 16 0  60 16 0  62 16 0  64 16 0  66 16 0  68 16 0  70 16 0  72 16 0  74 16 0  76 16 0  78 16 0  80 16 0  82 16 0  84 16 0  86 16 0  88 16 0  90 16 0  92 16 0  94 16 0  96 16 0  98 16 0  100 16 0  102 16 0  104 16 0  106 16 0  108 16 0  110 16 0  112 16 0  114 16 0  116 16 0  118 16 0  120 16 0  122 16 0  124 16 0  126 16 0  128 16 0  130 16 0  132 16 0  134 16 0  136 16 0  138 16 0  140 16 0  142 16 0  144 16 0  146 16 0  148 16 0  150 16 0  152 16 0  154 16 0  156 16 0  158 16 0  160 16 0  162 16 0  164 16 0  166 16 0  168 16 0  170 16 0  172 16 0  174 16 0  176 16 0  178 16 0  180 16 0  182 16 0  184 16 0  186 16 0  188 16 0  190 16 0  192 16 0  194 16 0  196 16 0  198 16 0  200 16 0  0 18 0  2 18 0  4 18 0  6 18 0  8 18 0  10 18 0  12 18 0  14 18 0  16 18 0  18 18 0  20 18 0  22 18 0  24 18 0  26 18 0  28 18 0  30 18 0  32 18 0  34 18 0  36 18 0  38 18 0  40 18 0  42 18 0  44 18 0  46 18 0  48 18 0  50 18 0  52 18 0  54 18 0  56 18 0  58 18 0  60 18 0  62 18 0  64 18 0  66 18 0  68 18 0  70 18 0  72 18 0  74 18 0  76 18 0  78 18 0  80 18 0  82 18 0  84 18 0  86 18 0  88 18 0  90 18 0  92 18 0  94 18 0  96 18 0  98 18 0  100 18 0  102 18 0  104 18 0  106 18 0  108 18 0  110 18 0  112 18 0  114 18 0  116 18 0  118 18 0  120 18 0  122 18 0  124 18 0  126 18 0  128 18 0  130 18 0  132 18 0  134 18 0  136 18 0  138 18 0  140 18 0  142 18 0  144 18 0  146 18 0  148 18 0  150 18 0  152 18 0  154 18 0  156 18 0  158 18 0  160 18 0  162 18 0  164 18 0  166 18 0  168 18 0  170 18 0  172 18 0  174 18 0  176 18 0  178 18 0  180 18 0  182 18 0  184 18 0  186 18 0  188 18 0  190 18 0  192 18 0  194 18 0  196 18 0  198 18 0  200 18 0  0 20 0  2 20 0  4 20 0  6 20 0  8 20 0  10 20 0  12 20 0  14 20 0  16 20 0  18 20 0  20 20 0  22 20 0  24 20 0  26 20 0  28 20 0  30 20 0  32 20 0  34 20 0  36 20 0  38 20 0  40 20 0  42 20 0  44 20 0  46 20 0  48 20 0  50 20 0  52 20 0  54 20 0  56 20 0  58 20 0  60 20 0  62 20 0  64 20 0  66 20 0  68 20 0  70 20 0  72 20 0  74 20 0  76 20 0  78 20 0  80 20 0  82 20 0  84 20 0  86 20 0  88 20 0  90 20 0  92 20 0  94 20 0  96 20 0  98 20 0  100 20 0  102 20 0  104 20 0  106 20 0  108 20 0  110 20 0  112 20 0  114 20 0  116 20 0  118 20 0  120 20 0  122 20 0  124 20 0  126 20 0  128 20 0  130 20 0  132 20 0  134 20 0  136 20 0  138 20 0  140 20 0  142 20 0  144 20 0  146 20 0  148 20 0  150 20 0  152 20 0  154 20 0  156 20 0
[...]
<PointData  Vectors="v"> 
<DataArray  type="Float64"  Name="v"  NumberOfComponents="3" format="ascii">0.0000000000000000e+00 0.0000000000000000e+00 0.0000000000000000e+00  0.0000000000000000e+00 0.0000000000000000e+00 0.0000000000000000e+00  0.0000000000000000e+00 0.0000000000000000e+00 0.0000000000000000e+00  0.0000000000000000e+00 0.0000000000000000e+00 0.0000000000000000e+00  0.0000000000000000e+00 0.0000000000000000e+00 0.0000000000000000e+00  0.0000000000000000e+00 0.0000000000000000e+00 0.0000000000000000e+00  0.0000000000000000e+00 0.0000000000000000e+00 0.0000000000000000e+00  0.0000000000000000e+00 0.0000000000000000e+00 0.0000000000000000e+00  0.0000000000000000e+00 0.0000000000000000e+00 0.0000000000000000e+00  0.0000000000000000e+00 0.0000000000000000e+00 0.0000000000000000e+00  0.0000000000000000e+00 0.0000000000000000e+00 0.0000000000000000e+00  0.0000000000000000e+00 0.0000000000000000e+00 0.0000000000000000e+00  0.0000000000000000e+00 0.0000000000000000e+00 0.0000000000000000e+00  0.0000000000000000e+00 0.0000000000000000e+00 0.0000000000000000e+00  0.0000000000000000e+00 0.0000000000000000e+00 0.0000000000000000e+00  0.0000000000000000e+00 0.0000000000000000e+00 0.0000000000000000e+00  0.0000000000000000e+00 0.0000000000000000e+00 0.0000000000000000e+00  0.0000000000000000e+00 0.0000000000000000e+00 0.0000000000000000e+00  0.0000000000000000e+00 0.0000000000000000e+00 0.0000000000000000e+00  0.0000000000000000e+00 0.0000000000000000e+00 0.0000000000000000e+00  0.0000000000000000e+00 0.0000000000000000e+00 0.0000000000000000e+00  0.0000000000000000e+00 0.0000000000000000e+00 0.0000000000000000e+00  0.0000000000000000e+00 0.0000000000000000e+00 0.0000000000000000e+00  0.0000000000000000e+00 0.0000000000000000e+00 0.0000000000000000e+00  0.0000000000000000e+00 0.0000000000000000e+00 0.0000000000000000e+00  0.0000000000000000e+00 0.0000000000000000e+00 0.0000000000000000e+00  0.0000000000000000e+00 0.0000000000000000e+00 0.0000000000000000e+00  0.0000000000000000e+00 0.0000000000000000e+00 0.0000000000000000e+00  0.0000000000000000e+00 0.0000000000000000e+00 0.0000000000000000e+00  0.0000000000000000e+00 0.0000000000000000e+00 0.0000000000000000e+00  0.0000000000000000e+00 0.0000000000000000e+00 0.0000000000000000e+00  0.0000000000000000e+00 0.0000000000000000e+00 0.0000000000000000e+00  0.0000000000000000e+00 0.0000000000000000e+00 0.0000000000000000e+00  0.0000000000000000e+00 0.0000000000000000e+00 0.0000000000000000e+00  0.0000000000000000e+00 0.0000000000000000e+00 0.0000000000000000e+00  0.0000000000000000e+00 0.0000000000000000e+00 0.0000000000000000e+00  0.0000000000000000e+00 0.0000000000000000e+00 0.0000000000000000e+00  0.0000000000000000e+00 0.0000000000000000e+00 0.0000000000000000e+00  0.0000000000000000e+00 0.0000000000000000e+00 0.0000000000000000e+00  0.0000000000000000e+00 0.0000000000000000e+00 0.0000000000000000e+00  0.0000000000000000e+00 0.0000000000000000e+00 0.0000000000000000e+00  0.0000000000000000e+00 0.0000000000000000e+00 0.0000000000000000e+00  0.0000000000000000e+00 0.0000000000000000e+00 0.0000000000000000e+00  0.0000000000000000e+00 0.0000000000000000e+00 0.0000000000000000e+00  0.0000000000000000e+00 0.0000000000000000e+00 0.0000000000000000e+00  0.0000000000000000e+00 0.0000000000000000e+00 0.0000000000000000e+00  0.0000000000000000e+00 0.0000000000000000e+00 0.0000000000000000e+00  0.0000000000000000e+00 0.0000000000000000e+00 0.0000000000000000e+00  0.0000000000000000e+00 0.0000000000000000e+00 0.0000000000000000e+00  0.0000000000000000e+00 0.0000000000000000e+00 0.0000000000000000e+00  0.0000000000000000e+00 0.0000000000000000e+00 0.0000000000000000e+00  0.0000000000000000e+00 0.0000000000000000e+00 0.0000000000000000e+00  0.0000000000000000e+00 0.0000000000000000e+00 0.0000000000000000e+00  0.0000000000000000e+00 0.0000000000000000e+00 0.0000000000000000e+00  0.0000000000000000e+00 0.0000000000000000e+00 0.0000000000000000e+00  0.0000000000000000e+00 0.0000000000000000e+00 0.0000000000000000e+00  0.0000000000000000e+00 0.0000000000000000e+00 0.0000000000000000e+00  0.0000000000000000e+00 0.0000000000000000e+00 0.0000000000000000e+00  0.0000000000000000e+00 0.0000000000000000e+00 0.0000000000000000e+00  0.0000000000000000e+00 0.0000000000000000e+00 0.0000000000000000e+00  0.0000000000000000e+00 0.0000000000000000e+00 0.0000000000000000e+00  0.0000000000000000e+00 0.0000000000000000e+00 0.0000000000000000e+00  0.0000000000000000e+00 0.0000000000000000e+00 0.0000000000000000e+00  0.0000000000000000e+00 0.0000000000000000e+00 0.0000000000000000e+00  0.0000000000000000e+00 0.0000000000000000e+00 0.0000000000000000e+00  0.0000000000000000e+00 0.0000000000000000e+00 0.0000000000000000e+00  0.0000000000000000e+00 0.0000000000000000e+00 0.0000000000000000e+00  0.0000000000000000e+00 0.0000000000000000e+00 0.0000000000000000e+00  0.0000000000000000e+00 0.0000000000000000e+00 0.0000000000000000e+00  0.0000000000000000e+00 0.0000000000000000e+00 0.0000000000000000e+00  0.0000000000000000e+00 0.0000000000000000e+00 0.0000000000000000e+00  0.0000000000000000e+00 0.0000000000000000e+00 0.0000000000000000e+00  0.0000000000000000e+00 0.0000000000000000e+00 0.0000000000000000e+00  0.0000000000000000e+00 0.0000000000000000e+00 0.0000000000000000e+00  0.0000000000000000e+00 0.0000000000000000e+00 0.0000000000000000e+00  0.0000000000000000e+00 0.0000000000000000e+00 0.0000000000000000e+00  0.0000000000000000e+00 0.0000000000000000e+00 0.0000000000000000e+00  0.0000000000000000e+00 0.0000000000000000e+00 0.0000000000000000e+00  0.0000000000000000e+00 0.0000000000000000e+00 0.0000000000000000e+00  0.0000000000000000e+00 0.0000000000000000e+00 0.0000000000000000e+00  0.0000000000000000e+00 0.0000000000000000e+00 0.0000000000000000e+00  0.0000000000000000e+00 0.0000000000000000e+00 0.0000000000000000e+00  0.0000000000000000e+00 0.0000000000000000e+00 0.0000000000000000e+00  0.0000000000000000e+00 0.0000000000000000e+00 0.0000000000000000e+00  0.0000000000000000e+00 0.0000000000000000e+00 0.0000000000000000e+00  0.0000000000000000e+00 0.0000000000000000e+00 0.0000000000000000e+00  0.0000000000000000e+00 0.0000000000000000e+00 0.0000000000000000e+00  0.0000000000000000e+00 0.0000000000000000e+00 0.0000000000000000e+00  0.0000000000000000e+00 0.0000000000000000e+00 0.0000000000000000e+00  0.0000000000000000e+00 0.0000000000000000e+00 0.0000000000000000e+00  0.0000000000000000e+00 0.0000000000000000e+00 0.0000000000000000e+00  0.0000000000000000e+00 0.0000000000000000e+00 0.0000000000000000e+00  0.0000000000000000e+00 0.0000000000000000e+00 0.0000000000000000e+00  0.0000000000000000e+00 0.0000000000000000e+00 0.0000000000000000e+00  0.0000000000000000e+00 0.0000000000000000e+00 0.0000000000000000e+00  0.0000000000000000e+00 0.0000000000000000e+00 0.0000000000000000e+00  0.0000000000000000e+00 0.0000000000000000e+00 0.0000000000000000e+00  0.0000000000000000e+00 0.0000000000000000e+00 0.0000000000000000e+00  0.0000000000000000e+00 0.0000000000000000e+00 0.0000000000000000e+00  0.0000000000000000e+00 0.0000000000000000e+00 0.0000000000000000e+00  0.0000000000000000e+00 0.0000000000000000e+00 0.0000000000000000e+00  0.0000000000000000e+00 0.0000000000000000e+00 0.0000000000000000e+00  -2.7384648519047049e-07 2.7309322634887680e-07 0.0000000000000000e+00  -1.5210128209717486e-06 9.1068989820323318e-07 0.0000000000000000e+00  -3.8525027604779661e-06 1.4720395441864279e-06 0.0000000000000000e+00  -7.0772994527885878e-06 1.8927054942162574e-06 0.0000000000000000e+00  -1.0971042528402904e-05 2.1972343964576444e-06 0.0000000000000000e+00  -1.5364855575818161e-05 2.4308263656158361e-06 0.0000000000000000e+00  -2.0172443682754029e-05 2.6441740387777783e-06 0.0000000000000000e+00  -2.5399700009614857e-05 2.8903300648278463e-06 0.0000000000000000e+00  -3.1148133104765912e-05 3.2226690641667212e-06 0.0000000000000000e+00  -3.7612071210657412e-05 3.6909183966995780e-06 0.0000000000000000e+00  -4.5062904872135327e-05 4.3332294695682282e-06 0.0000000000000000e+00  -5.3819547367173106e-05 5.1659998391343311e-06 0.0000000000000000e+00  -6.4208305834505025e-05 6.1975314446761361e-06 0.0000000000000000e+00  -7.6541764084272386e-05 7.4191009426256364e-06 0.0000000000000000e+00  -9.1101956584258684e-05 8.7954890683360456e-06 0.0000000000000000e+00  -1.0803360936370452e-04 1.0254061803942784e-05 0.0000000000000000e+00  -1.2729526633804299e-04 1.1711150011090559e-05 0.0000000000000000e+00  -1.4866829648322818e-04 1.2828067690974462e-05 0.0000000000000000e+00  -1.7091658687410375e-04 1.2785236390390343e-05 0.0000000000000000e+00  -1.9195546285402936e-04 1.2336443100322667e-05 0.0000000000000000e+00  -2.1331992491359589e-04 1.4684173725850415e-05 0.0000000000000000e+00  -2.4028586244748788e-04 1.8727050387469613e-05 0.0000000000000000e+00  -2.7054487972462849e-04 1.7590298265344636e-05 0.0000000000000000e+00  -2.9282938557981616e-04 1.0028438219396400e-05 0.0000000000000000e+00  -3.0128568493308582e-04 2.0859893874248867e-06 0.0000000000000000e+00  -2.9964361368674562e-04 -2.5389347918896765e-06 0.0000000000000000e+00  -2.9257531551082162e-04 -5.4879456824158863e-06 0.0000000000000000e+00  -2.8080343033692450e-04 -9.0054811672268909e-06 0.0000000000000000e+00  -2.6308678160936132e-04 -1.2953766023673322e-05 0.0000000000000000e+00  -2.4039382252087824e-04 -1.4823254367889826e-05 0.0000000000000000e+00  -2.1806631423107646e-04 -1.2435185634374113e-05 0.0000000000000000e+00  -2.0173679043137630e-04 -8.4741623727757699e-06 0.0000000000000000e+00  -1.8898671738944571e-04 -8.4823374806191621e-06 0.0000000000000000e+00  -1.7186716426619708e-04 -1.1997752461563938e-05 0.0000000000000000e+00  -1.4982058267934967e-04 -1.3170724082794609e-05 0.0000000000000000e+00  -1.2894682474565513e-04 -1.1147750741723570e-05 0.0000000000000000e+00  -1.1175807375728961e-04 -9.0269293358061637e-06 0.0000000000000000e+00  -9.7082251406515834e-05 -7.7526513247664915e-06 0.0000000000000000e+00  -8.4104647142616966e-05 -6.7867426715672724e-06 0.0000000000000000e+00  -7.2636379030303834e-05 -5.9531886787678818e-06 0.0000000000000000e+00  -6.2440361082402251e-05 -5.2540307181109823e-06 0.0000000000000000e+00  -5.3315827660130515e-05 -4.6702475813385187e-06 0.0000000000000000e+00  -4.5100111881428796e-05 -4.1953993988907240e-06 0.0000000000000000e+00  -3.7609884891584431e-05 -3.8255764933048468e-06 0.0000000000000000e+00  -3.0670852079749331e-05 -3.5516691182935115e-06 0.0000000000000000e+00  -2.4138665091464224e-05 -3.3534896489610134e-06 0.0000000000000000e+00  -1.7893991528331875e-05 -3.2175730678937961e-06 0.0000000000000000e+00  -1.1838718706752992e-05 -3.1324724018401015e-06 0.0000000000000000e+00  -5.8941319978920535e-06 -3.0871620786984961e-06 0.0000000000000000e+00  5.8039253837451404e-10 -3.0731124634362976e-06 0.0000000000000000e+00  5.8951277752895296e-06 -3.0869827745233052e-06 0.0000000000000000e+00  1.1839227671689262e-05 -3.1321220376490596e-06 0.0000000000000000e+00  1.7893717778615437e-05 -3.2170695138110382e-06 0.0000000000000000e+00  2.4137359247215773e-05 -3.3528622107183717e-06 0.0000000000000000e+00  3.0668334574519679e-05 -3.5509593327936629e-06 0.0000000000000000e+00  3.7606068622268294e-05 -3.8248382435014809e-06 0.0000000000000000e+00  4.5095023687862965e-05 -4.1946973242055748e-06 0.0000000000000000e+00  5.3309631415139060e-05 -4.6696640075525729e-06 0.0000000000000000e+00  6.2433380164422068e-05 -5.2536603505990468e-06 0.0000000000000000e+00  7.2629094980778612e-05 -5.9530921070715769e-06 0.0000000000000000e+00  8.4097615991264850e-05 -6.7869447125957129e-06 0.0000000000000000e+00  9.7076061437180068e-05 -7.7532896673806836e-06 0.0000000000000000e+00  1.1175355674685822e-04 -9.0279904488498179e-06 0.0000000000000000e+00  1.2894439995501811e-04 -1.1148620432214733e-05 0.0000000000000000e+00  1.4981973060148972e-04 -1.3171658696312450e-05 0.0000000000000000e+00  1.7186879846013421e-04 -1.2000037530728778e-05 0.0000000000000000e+00  1.8899291379177713e-04 -8.4852803845352044e-06 0.0000000000000000e+00  2.0174704483629825e-04 -8.4758134399119516e-06 0.0000000000000000e+00  2.1807844563169617e-04 -1.2435852685194571e-05 0.0000000000000000e+00  2.4040720989635845e-04 -1.4823975131882078e-05 0.0000000000000000e+00  2.6310153071052404e-04 -1.2954476063601231e-05 0.0000000000000000e+00  2.8081911198315232e-04 -9.0057826957279518e-06 0.0000000000000000e+00  2.9259100633037094e-04 -5.4876707350645298e-06 0.0000000000000000e+00  2.9965835483747587e-04 -2.5382139630814791e-06 0.0000000000000000e+00  3.0129896180442238e-04 2.0867765862902664e-06 0.0000000000000000e+00  2.9284119475679626e-04 1.0029245734332964e-05 0.0000000000000000e+00  2.7055447584667494e-04 1.7592171405272802e-05 0.0000000000000000e+00  2.4029098847179093e-04 1.8730235165263898e-05 0.0000000000000000e+00  2.1332014223690473e-04 1.4686616522894345e-05 0.0000000000000000e+00  1.9195304076146199e-04 1.2337408796626611e-05 0.0000000000000000e+00  1.7091258714361523e-04 1.2786096368089270e-05 0.0000000000000000e+00  1.4866218930507846e-04 1.2829138808651829e-05 0.0000000000000000e+00  1.2728747131851071e-04 1.1711783838035239e-05 0.0000000000000000e+00  1.0802500980942387e-04 1.0254231872784699e-05 0.0000000000000000e+00  9.1093171975672584e-05 8.7953508164200284e-06 0.0000000000000000e+00  7.6533357317558483e-05 7.4186887744264624e-06 0.0000000000000000e+00  6.4200756278826160e-05 6.1969095632057019e-06 0.0000000000000000e+00  5.3813168121219557e-05 5.1652678130083470e-06 0.0000000000000000e+00  4.5057839897542119e-05 4.3324746648209181e-06 0.0000000000000000e+00  3.7608320527166782e-05 3.6902076312852503e-06 0.0000000000000000e+00  3.1145583331790628e-05 3.2220533881932170e-06 0.0000000000000000e+00  2.5398156463829695e-05 2.8898418010780568e-06 0.0000000000000000e+00  2.0171665412086180e-05 2.6438261880121826e-06 0.0000000000000000e+00  1.5364591615662856e-05 2.4306134089388429e-06 0.0000000000000000e+00  1.0971064289238325e-05 2.1971352524490084e-06 0.0000000000000000e+00  7.0774262703103647e-06 1.8926877893112683e-06 0.0000000000000000e+00  3.8526184123592026e-06 1.4720649007569379e-06 0.0000000000000000e+00  1.5210705024873223e-06 9.1072101843123996e-07 0.0000000000000000e+00  2.7385771560816697e-07 2.7310490139777336e-07 0.0000000000000000e+00  0.0000000000000000e+00 0.0000000000000000e+00 0.0000000000000000e+00  0.0000000000000000e+00 0.0000000000000000e+00 0.0000000000000000e+00  -9.1219785417341959e-07 1.5206650797596193e-06 0.0000000000000000e+00  -3.5926456249900143e-06 3.5953953491932416e-06 0.0000000000000000e+00  -7.8863503283195633e-06 5.4342672166667067e-06 0.0000000000000000e+00  -1.3512999972723614e-05 6.8573890878732593e-06 0.0000000000000000e+00  -2.0161029438797753e-05 7.9109211098066440e-06 0.0000000000000000e+00  -2.7574167824382565e-05 8.7212896718040538e-06 0.0000000000000000e+00  -3.5598013903164454e-05 9.4453772433379864e-06 0.0000000000000000e+00  -4.4202230794742328e-05 1.0252290605297177e-05 0.0000000000000000e+00  -5.3488229464273978e-05 1.1314103468216878e-05 0.0000000000000000e+00  -6.3683987044366793e-05 1.2786585109609929e-05 0.0000000000000000e+00  -7.5121307206703410e-05 1.4781623168789459e-05 0.0000000000000000e+00  -8.8163269025348171e-05 1.7339149714249571e-05 0.0000000000000000e+00  -1.0312545527938206e-04 2.0384495089100860e-05 0.0000000000000000e+00  -1.2020110518337615e-04 2.3926889447699071e-05 0.0000000000000000e+00  -1.3949128457312548e-04 2.7814071714433893e-05 0.0000000000000000e+00  -1.6091786760691148e-04 3.1447044420950783e-05 0.0000000000000000e+00  -1.8364397775120283e-04 3.4876610138356515e-05 0.0000000000000000e+00  -2.0738616501640359e-04 3.7962494050650800e-05 0.0000000000000000e+00  -2.3161942328473611e-04 3.6812518740195384e-05 0.0000000000000000e+00  -2.5034952382385183e-04 3.0807447025359795e-05 0.0000000000000000e+00  -2.6038844874917054e-04 3.3796991029202698e-05 0.0000000000000000e+00  -2.7549378393071095e-04 4.6165509954673686e-05 0.0000000000000000e+00  -2.9798817571044869e-04 4.3856691891070731e-05 0.0000000000000000e+00  -3.0945898461623135e-04 2.3854443881273930e-05 0.0000000000000000e+00  -3.0499236167810405e-04 5.2462486580534503e-06 0.0000000000000000e+00  -2.9577871142146065e-04 -3.4455241573094145e-06 0.0000000000000000e+00  -2.8834787217155025e-04 -8.1322902445845034e-06 0.0000000000000000e+00  -2.8189625877836583e-04 -1.5285308610326967e-05 0.0000000000000000e+00  -2.7315744304317284e-04 -2.5063269867128885e-05 0.0000000000000000e+00  -2.5995326433225796e-04 -3.1263749786230101e-05 0.0000000000000000e+00  -2.4640883554205486e-04 -2.7154862515763206e-05 0.0000000000000000e+00  -2.4171789621223825e-04 -1.8248644320416406e-05 0.0000000000000000e+00  -2.4102303800453264e-04 -2.1426532531193518e-05 0.0000000000000000e+00  -2.2684499829267639e-04 -3.5439149408938208e-05 0.0000000000000000e+00  -2.0217400267559513e-04 -3.8654953407252499e-05 0.0000000000000000e+00  -1.8169486367577414e-04 -3.1221834002390889e-05 0.0000000000000000e+00  -1.6466373230887018e-04 -2.6315436355371451e-05 0.0000000000000000e+00  -1.4745091605482003e-04 -2.4099591389735560e-05 0.0000000000000000e+00  -1.3086437460895476e-04 -2.1647211285434123e-05 0.0000000000000000e+00  -1.1551850613958591e-04 -1.9300557182466569e-05 0.0000000000000000e+00  -1.0109193694639552e-04 -1.7474190836921514e-05 0.0000000000000000e+00  -8.7645512112608591e-05 -1.5849973995441202e-05 0.0000000000000000e+00  -7.5114758596101395e-05 -1.4462098611657771e-05 0.0000000000000000e+00  -6.3318539112788719e-05 -1.3409289173478484e-05 0.0000000000000000e+00  -5.2085989786201920e-05 -1.2615670131945698e-05 0.0000000000000000e+00  -4.1271490644223728e-05 -1.2039757661313583e-05 0.0000000000000000e+00  -3.0753557649113025e-05 -1.1647544800533963e-05 0.0000000000000000e+00  -2.0421830322021039e-05 -1.1405945208113554e-05 0.0000000000000000e+00  -1.0189883716270495e-05 -1.1280684887375012e-05 0.0000000000000000e+00  1.1800047253148974e-09 -1.1242459173786784e-05 0.0000000000000000e+00  1.0191994970320084e-05 -1.1280081716232011e-05 0.0000000000000000e+00  2.0423211371788739e-05 -1.1404771863879735e-05 0.0000000000000000e+00  3.0753777352005148e-05 -1.1645871733304595e-05 0.0000000000000000e+00  4.1270207614704931e-05 -1.2037699129096707e-05 0.0000000000000000e+00  5.2082995245190182e-05 -1.2613386437241094e-05 0.0000000000000000e+00  6.3313799081877729e-05 -1.3406979642019779e-05 0.0000000000000000e+00  7.5108437695868834e-05 -1.4460004295640646e-05 0.0000000000000000e+00  8.7637991950147620e-05 -1.5848357531113922e-05 0.0000000000000000e+00  1.0108385658504199e-04 -1.7473376094109943e-05 0.0000000000000000e+00  1.1551077212136113e-04 -1.9300867680029583e-05 0.0000000000000000e+00  1.3085802485616235e-04 -2.1648427229056813e-05 0.0000000000000000e+00  1.4744648375243261e-04 -2.4101822709278153e-05 0.0000000000000000e+00  1.6466247806900641e-04 -2.6320023786383747e-05 0.0000000000000000e+00  1.8169837803554243e-04 -3.1225849354594957e-05 0.0000000000000000e+00  2.0217968470017208e-04 -3.8656226995734056e-05 0.0000000000000000e+00  2.2685202799553960e-04 -3.5444081462135141e-05 0.0000000000000000e+00  2.4103549881796758e-04 -2.1433901621766481e-05 0.0000000000000000e+00  2.4173510914623944e-04 -1.8253510056715972e-05 0.0000000000000000e+00  2.4642566954385855e-04 -2.7159670239781547e-05 0.0000000000000000e+00  2.5996884179882543e-04 -3.1269536164426613e-05 0.0000000000000000e+00  2.7317224175899620e-04 -2.5068069087555651e-05 0.0000000000000000e+00  2.8191053774263164e-04 -1.5287094751847479e-05 0.0000000000000000e+00  2.8836209154190965e-04 -8.1303311321760022e-06 0.0000000000000000e+00  2.9579324915382922e-04 -3.4404869746301475e-06 0.0000000000000000e+00  3.0500729155732287e-04 5.2523427458969088e-06 0.0000000000000000e+00  3.0947465199360392e-04 2.3859681645783736e-05 0.0000000000000000e+00  2.9800369406592222e-04 4.3862218965794194e-05 0.0000000000000000e+00  2.7550412671244401e-04 4.6173600976643023e-05 0.0000000000000000e+00  2.6039302894454211e-04 3.3802315