<?xml version="1.0"?>
<VTKFile type="UnstructuredGrid"  version="0.1"  >
<UnstructuredGrid>
<Piece  NumberOfPoints="11156" NumberOfCells="22000">
<Points>
<DataArray  type="Float64"  NumberOfComponents="3"  format="ascii">0 0 0  2 0 0  4 0 0  6 0 0  8 0 0  10 0 0  12 0 0  14 0 0  16 0 0  18 0 0  20 0 0  22 0 0  24 0 0  26 0 0  28 0 0  30 0 0  32 0 0  34 0 0  36 0 0  38 0 0  40 0 0  42 0 0  44 0 0  46 0 0  48 0 0  50 0 0  52 0 0  54 0 0  56 0 0  58 0 0  60 0 0  62 0 0  64 0 0  66 0 0  68 0 0  70 0 0  72 0 0  74 0 0  76 0 0  78 0 0  80 0 0  82 0 0  84 0 0  86 0 0  88 0 0  90 0 0  92 0 0  94 0 0  96 0 0  98 0 0  100 0 0  102 0 0  104 0 0  106 0 0  108 0 0  110 0 0  112 0 0  114 0 0  116 0 0  118 0 0  120 0 0  122 0 0  124 0 0  126 0 0  128 0 0  130 0 0  132 0 0  134 0 0  136 0 0  138 0 0  140 0 0  142 0 0  144 0 0  146 0 0  148 0 0  150 0 0  152 0 0  154 0 0  156 0 0  158 0 0  160 0 0  162 0 0  164 0 0  166 0 0  168 0 0  170 0 0  172 0 0  174 0 0  176 0 0  178 0 0  180 0 0  182 0 0  184 0 0  186 0 0  188 0 0  190 0 0  192 0 0  194 0 0  196 0 0  198 0 0  200 0 0  0 2 0  2 2 0  4 2 0  6 2 0  8 2 0  10 2 0  12 2 0  14 2 0  16 2 0  18 2 0  20 2 0  22 2 0  24 2 0  26 2 0  28 2 0  30 2 0  32 2 0  34 2 0  36 2 0  38 2 0  40 2 0  42 2 0  44 2 0  46 2 0  48 2 0  50 2 0  52 2 0  54 2 0  56 2 0  58 2 0  60 2 0  62 2 0  64 2 0  66 2 0  68 2 0  70 2 0  72 2 0  74 2 0  76 2 0  78 2 0  80 2 0  82 2 0  84 2 0  86 2 0  88 2 0  90 2 0  92 2 0  94 2 0  96 2 0  98 2 0  100 2 0  102 2 0  104 2 0  106 2 0  108 2 0  110 2 0  112 2 0  114 2 0  116 2 0  118 2 0  120 2 0  122 2 0  124 2 0  126 2 0  128 2 0  130 2 0  132 2 0  134 2 0  136 2 0  138 2 0  140 2 0  142 2 0  144 2 0  146 2 0  148 2 0  150 2 0  152 2 0  154 2 0  156 2 0  158 2 0  160 2 0  162 2 0  164 2 0  166 2 0  168 2 0  170 2 0  172 2 0  174 2 0  176 2 0  178 2 0  180 2 0  182 2 0  184 2 0  186 2 0  188 2 0  190 2 0  192 2 0  194 2 0  196 2 0  198 2 0  200 2 0  0 4 0  2 4 0  4 4 0  6 4 0  8 4 0  10 4 0  12 4 0  14 4 0  16 4 0  18 4 0  20 4 0  22 4 0  24 4 0  26 4 0  28 4 0  30 4 0  32 4 0  34 4 0  36 4 0  38 4 0  40 4 0  42 4 0  44 4 0  46 4 0  48 4 0  50 4 0  52 4 0  54 4 0  56 4 0  58 4 0  60 4 0  62 4 0  64 4 0  66 4 0  68 4 0  70 4 0  72 4 0  74 4 0  76 4 0  78 4 0  80 4 0  82 4 0  84 4 0  86 4 0  88 4 0  90 4 0  92 4 0  94 4 0  96 4 0  98 4 0  100 4 0  102 4 0  104 4 0  106 4 0  108 4 0  110 4 0  112 4 0  114 4 0  116 4 0  118 4 0  120 4 0  122 4 0  124 4 0  126 4 0  128 4 0  130 4 0  132 4 0  134 4 0  136 4 0  138 4 0  140 4 0  142 4 0  144 4 0  146 4 0  148 4 0  150 4 0  152 4 0  154 4 0  156 4 0  158 4 0  160 4 0  162 4 0  164 4 0  166 4 0  168 4 0  170 4 0  172 4 0  174 4 0  176 4 0  178 4 0  180 4 0  182 4 0  184 4 0  186 4 0  188 4 0  190 4 0  192 4 0  194 4 0  196 4 0  198 4 0  200 4 0  0 6 0  2 6 0  4 6 0  6 6 0  8 6 0  10 6 0  12 6 0  14 6 0  16 6 0  18 6 0  20 6 0  22 6 0  24 6 0  26 6 0  28 6 0  30 6 0  32 6 0  34 6 0  36 6 0  38 6 0  40 6 0  42 6 0  44 6 0  46 6 0  48 6 0  50 6 0  52 6 0  54 6 0  56 6 0  58 6 0  60 6 0  62 6 0  64 6 0  66 6 0  68 6 0  70 6 0  72 6 0  74 6 0  76 6 0  78 6 0  80 6 0  82 6 0  84 6 0  86 6 0  88 6 0  90 6 0  92 6 0  94 6 0  96 6 0  98 6 0  100 6 0  102 6 0  104 6 0  106 6 0  108 6 0  110 6 0  112 6 0  114 6 0  116 6 0  118 6 0  120 6 0  122 6 0  124 6 0  126 6 0  128 6 0  130 6 0  132 6 0  134 6 0  136 6 0  138 6 0  140 6 0  142 6 0  144 6 0  146 6 0  148 6 0  150 6 0  152 6 0  154 6 0  156 6 0  158 6 0  160 6 0  162 6 0  164 6 0  166 6 0  168 6 0  170 6 0  172 6 0  174 6 0  176 6 0  178 6 0  180 6 0  182 6 0  184 6 0  186 6 0  188 6 0  190 6 0  192 6 0  194 6 0  196 6 0  198 6 0  200 6 0  0 8 0  2 8 0  4 8 0  6 8 0  8 8 0  10 8 0  12 8 0  14 8 0  16 8 0  18 8 0  20 8 0  22 8 0  24 8 0  26 8 0  28 8 0  30 8 0  32 8 0  34 8 0  36 8 0  38 8 0  40 8 0  42 8 0  44 8 0  46 8 0  48 8 0  50 8 0  52 8 0  54 8 0  56 8 0  58 8 0  60 8 0  62 8 0  64 8 0  66 8 0  68 8 0  70 8 0  72 8 0  74 8 0  76 8 0  78 8 0  80 8 0  82 8 0  84 8 0  86 8 0  88 8 0  90 8 0  92 8 0  94 8 0  96 8 0  98 8 0  100 8 0  102 8 0  104 8 0  106 8 0  108 8 0  110 8 0  112 8 0  114 8 0  116 8 0  118 8 0  120 8 0  122 8 0  124 8 0  126 8 0  128 8 0  130 8 0  132 8 0  134 8 0  136 8 0  138 8 0  140 8 0  142 8 0  144 8 0  146 8 0  148 8 0  150 8 0  152 8 0  154 8 0  156 8 0  158 8 0  160 8 0  162 8 0  164 8 0  166 8 0  168 8 0  170 8 0  172 8 0  174 8 0  176 8 0  178 8 0  180 8 0  182 8 0  184 8 0  186 8 0  188 8 0  190 8 0  192 8 0  194 8 0  196 8 0  198 8 0  200 8 0  0 10 0  2 10 0  4 10 0  6 10 0  8 10 0  10 10 0  12 10 0  14 10 0  16 10 0  18 10 0  20 10 0  22 10 0  24 10 0  26 10 0  28 10 0  30 10 0  32 10 0  34 10 0  36 10 0  38 10 0  40 10 0  42 10 0  44 10 0  46 10 0  48 10 0  50 10 0  52 10 0  54 10 0  56 10 0  58 10 0  60 10 0  62 10 0  64 10 0  66 10 0  68 10 0  70 10 0  72 10 0  74 10 0  76 10 0  78 10 0  80 10 0  82 10 0  84 10 0  86 10 0  88 10 0  90 10 0  92 10 0  94 10 0  96 10 0  98 10 0  100 10 0  102 10 0  104 10 0  106 10 0  108 10 0  110 10 0  112 10 0  114 10 0  116 10 0  118 10 0  120 10 0  122 10 0  124 10 0  126 10 0  128 10 0  130 10 0  132 10 0  134 10 0  136 10 0  138 10 0  140 10 0  142 10 0  144 10 0  146 10 0  148 10 0  150 10 0  152 10 0  154 10 0  156 10 0  158 10 0  160 10 0  162 10 0  164 10 0  166 10 0  168 10 0  170 10 0  172 10 0  174 10 0  176 10 0  178 10 0  180 10 0  182 10 0  184 10 0  186 10 0  188 10 0  190 10 0  192 10 0  194 10 0  196 10 0  198 10 0  200 10 0  0 12 0  2 12 0  4 12 0  6 12 0  8 12 0  10 12 0  12 12 0  14 12 0  16 12 0  18 12 0  20 12 0  22 12 0  24 12 0  26 12 0  28 12 0  30 12 0  32 12 0  34 12 0  36 12 0  38 12 0  40 12 0  42 12 0  44 12 0  46 12 0  48 12 0  50 12 0  52 12 0  54 12 0  56 12 0  58 12 0  60 12 0  62 12 0  64 12 0  66 12 0  68 12 0  70 12 0  72 12 0  74 12 0  76 12 0  78 12 0  80 12 0  82 12 0  84 12 0  86 12 0  88 12 0  90 12 0  92 12 0  94 12 0  96 12 0  98 12 0  100 12 0  102 12 0  104 12 0  106 12 0  108 12 0  110 12 0  112 12 0  114 12 0  116 12 0  118 12 0  120 12 0  122 12 0  124 12 0  126 12 0  128 12 0  130 12 0  132 12 0  134 12 0  136 12 0  138 12 0  140 12 0  142 12 0  144 12 0  146 12 0  148 12 0  150 12 0  152 12 0  154 12 0  156 12 0  158 12 0  160 12 0  162 12 0  164 12 0  166 12 0  168 12 0  170 12 0  172 12 0  174 12 0  176 12 0  178 12 0  180 12 0  182 12 0  184 12 0  186 12 0  188 12 0  190 12 0  192 12 0  194 12 0  196 12 0  198 12 0  200 12 0  0 14 0  2 14 0  4 14 0  6 14 0  8 14 0  10 14 0  12 14 0  14 14 0  16 14 0  18 14 0  20 14 0  22 14 0  24 14 0  26 14 0  28 14 0  30 14 0  32 14 0  34 14 0  36 14 0  38 14 0  40 14 0  42 14 0  44 14 0  46 14 0  48 14 0  50 14 0  52 14 0  54 14 0  56 14 0  58 14 0  60 14 0  62 14 0  64 14 0  66 14 0  68 14 0  70 14 0  72 14 0  74 14 0  76 14 0  78 14 0  80 14 0  82 14 0  84 14 0  86 14 0  88 14 0  90 14 0  92 14 0  94 14 0  96 14 0  98 14 0  100 14 0  102 14 0  104 14 0  106 14 0  108 14 0  110 14 0  112 14 0  114 14 0  116 14 0  118 14 0  120 14 0  122 14 0  124 14 0  126 14 0  128 14 0  130 14 0  132 14 0  134 14 0  136 14 0  138 14 0  140 14 0  142 14 0  144 14 0  146 14 0  148 14 0  150 14 0  152 14 0  154 14 0  156 14 0  158 14 0  160 14 0  162 14 0  164 14 0  166 14 0  168 14 0  170 14 0  172 14 0  174 14 0  176 14 0  178 14 0  180 14 0  182 14 0  184 14 0  186 14 0  188 14 0  190 14 0  192 14 0  194 14 0  196 14 0  198 14 0  200 14 0  0 16 0  2 16 0  4 16 0  6 16 0  8 16 0  10 16 0  12 16 0  14 16 0  16 16 0  18 16 0  20 16 0  22 16 0  24 16 0  26 16 0  28 16 0  30 16 0  32 16 0  34 16 0  36 16 0  38 16 0  40 16 0  42 16 0  44 16 0  46 16 0  48 16 0  50 16 0  52 16 0  54 16 0  56 16 0  58 16 0  60 16 0  62 16 0  64 16 0  66 16 0  68 16 0  70 16 0  72 16 0  74 16 0  76 16 0  78 16 0  80 16 0  82 16 0  84 16 0  86 16 0  88 16 0  90 16 0  92 16 0  94 16 0  96 16 0  98 16 0  100 16 0  102 16 0  104 16 0  106 16 0  108 16 0  110 16 0  112 16 0  114 16 0  116 16 0  118 16 0  120 16 0  122 16 0  124 16 0  126 16 0  128 16 0  130 16 0  132 16 0  134 16 0  136 16 0  138 16 0  140 16 0  142 16 0  144 16 0  146 16 0  148 16 0  150 16 0  152 16 0  154 16 0  156 16 0  158 16 0  160 16 0  162 16 0  164 16 0  166 16 0  168 16 0  170 16 0  172 16 0  174 16 0  176 16 0  178 16 0  180 16 0  182 16 0  184 16 0  186 16 0  188 16 0  190 16 0  192 16 0  194 16 0  196 16 0  198 16 0  200 16 0  0 18 0  2 18 0  4 18 0  6 18 0  8 18 0  10 18 0  12 18 0  14 18 0  16 18 0  18 18 0  20 18 0  22 18 0  24 18 0  26 18 0  28 18 0  30 18 0  32 18 0  34 18 0  36 18 0  38 18 0  40 18 0  42 18 0  44 18 0  46 18 0  48 18 0  50 18 0  52 18 0  54 18 0  56 18 0  58 18 0  60 18 0  62 18 0  64 18 0  66 18 0  68 18 0  70 18 0  72 18 0  74 18 0  76 18 0  78 18 0  80 18 0  82 18 0  84 18 0  86 18 0  88 18 0  90 18 0  92 18 0  94 18 0  96 18 0  98 18 0  100 18 0  102 18 0  104 18 0  106 18 0  108 18 0  110 18 0  112 18 0  114 18 0  116 18 0  118 18 0  120 18 0  122 18 0  124 18 0  126 18 0  128 18 0  130 18 0  132 18 0  134 18 0  136 18 0  138 18 0  140 18 0  142 18 0  144 18 0  146 18 0  148 18 0  150 18 0  152 18 0  154 18 0  156 18 0  158 18 0  160 18 0  162 18 0  164 18 0  166 18 0  168 18 0  170 18 0  172 18 0  174 18 0  176 18 0  178 18 0  180 18 0  182 18 0  184 18 0  186 18 0  188 18 0  190 18 0  192 18 0  194 18 0  196 18 0  198 18 0  200 18 0  0 20 0  2 20 0  4 20 0  6 20 0  8 20 0  10 20 0  12 20 0  14 20 0  16 20 0  18 20 0  20 20 0  22 20 0  24 20 0  26 20 0  28 20 0  30 20 0  32 20 0  34 20 0  36 20 0  38 20 0  40 20 0  42 20 0  44 20 0  46 20 0  48 20 0  50 20 0  52 20 0  54 20 0  56 20 0  58 20 0  60 20 0  62 20 0  64 20 0  66 20 0  68 20 0  70 20 0  72 20 0  74 20 0  76 20 0  78 20 0  80 20 0  82 20 0  84 20 0  86 20 0  88 20 0  90 20 0  92 20 0  94 20 0  96 20 0  98 20 0  100 20 0  102 20 0  104 20 0  106 20 0  108 20 0  110 20 0  112 20 0  114 20 0  116 20 0  118 20 0  120 20 0  122 20 0  124 20 0  126 20 0  128 20 0  130 20 0  132 20 0  134 20 0  136 20 0  138 20 0  140 20 0  142 20 0  144 20 0  146 20 0  148 20 0  150 20 0  152 20 0  154 20 0  156 20 0
[...]
<PointData  Tensors="stress"> 
<DataArray  type="Float64"  Name="stress"  NumberOfComponents="9" format="ascii">4.4201703067705102e-04 -8.1515462984654137e-11 0.0000000000000000e+00 -8.1515462984654137e-11 4.4199282732389813e-04 0.0000000000000000e+00 0.0000000000000000e+00 0.0000000000000000e+00 0.0000000000000000e+00  4.4223160798453133e-04 5.4255753318234246e-08 0.0000000000000000e+00 5.4255753318234246e-08 4.4214821916989226e-04 0.0000000000000000e+00 0.0000000000000000e+00 0.0000000000000000e+00 0.0000000000000000e+00  4.4282570258047334e-04 -1.9473300205941754e-07 0.0000000000000000e+00 -1.9473300205941754e-07 4.4283419247876797e-04 0.0000000000000000e+00 0.0000000000000000e+00 0.0000000000000000e+00 0.0000000000000000e+00  4.4340036472402555e-04 -8.4253138544166829e-07 0.0000000000000000e+00 -8.4253138544166829e-07 4.4345046351599015e-04 0.0000000000000000e+00 0.0000000000000000e+00 0.0000000000000000e+00 0.0000000000000000e+00  4.4373080085622398e-04 -1.7887436344591999e-06 0.0000000000000000e+00 -1.7887436344591999e-06 4.4380355821007646e-04 0.0000000000000000e+00 0.0000000000000000e+00 0.0000000000000000e+00 0.0000000000000000e+00  4.4372123506125855e-04 -2.9539785548749773e-06 0.0000000000000000e+00 -2.9539785548749773e-06 4.4380723974062839e-04 0.0000000000000000e+00 0.0000000000000000e+00 0.0000000000000000e+00 0.0000000000000000e+00  4.4332781692327141e-04 -4.2866164582315152e-06 0.0000000000000000e+00 -4.2866164582315152e-06 4.4342377858284839e-04 0.0000000000000000e+00 0.0000000000000000e+00 0.0000000000000000e+00 0.0000000000000000e+00  4.4252224647338054e-04 -5.7646857053461597e-06 0.0000000000000000e+00 -5.7646857053461597e-06 4.4262893064825359e-04 0.0000000000000000e+00 0.0000000000000000e+00 0.0000000000000000e+00 0.0000000000000000e+00  4.4128054031065185e-04 -7.3991394831928078e-06 0.0000000000000000e+00 -7.3991394831928078e-06 4.4140239428372061e-04 0.0000000000000000e+00 0.0000000000000000e+00 0.0000000000000000e+00 0.0000000000000000e+00  4.3954273002756077e-04 -9.2171341382847117e-06 0.0000000000000000e+00 -9.2171341382847117e-06 4.3968953006200346e-04 0.0000000000000000e+00 0.0000000000000000e+00 0.0000000000000000e+00 0.0000000000000000e+00  4.3724775537164456e-04 -1.1313812885880891e-05 0.0000000000000000e+00 -1.1313812885880891e-05 4.3742646168240263e-04 0.0000000000000000e+00 0.0000000000000000e+00 0.0000000000000000e+00 0.0000000000000000e+00  4.3421317534788955e-04 -1.3716902928615942e-05 0.0000000000000000e+00 -1.3716902928615942e-05 4.3445526528578156e-04 0.0000000000000000e+00 0.0000000000000000e+00 0.0000000000000000e+00 0.0000000000000000e+00  4.3026748280746959e-04 -1.6645883111444646e-05 0.0000000000000000e+00 -1.6645883111444646e-05 4.3056156108533850e-04 0.0000000000000000e+00 0.0000000000000000e+00 0.0000000000000000e+00 0.0000000000000000e+00  4.2508714656905761e-04 -2.0093178687822123e-05 0.0000000000000000e+00 -2.0093178687822123e-05 4.2550162973664104e-04 0.0000000000000000e+00 0.0000000000000000e+00 0.0000000000000000e+00 0.0000000000000000e+00  4.1819344192836421e-04 -2.4219302672766312e-05 0.0000000000000000e+00 -2.4219302672766312e-05 4.1872004800708537e-04 0.0000000000000000e+00 0.0000000000000000e+00 0.0000000000000000e+00 0.0000000000000000e+00  4.0921862117222318e-04 -2.9336758039109604e-05 0.0000000000000000e+00 -2.9336758039109604e-05 4.0987814787948044e-04 0.0000000000000000e+00 0.0000000000000000e+00 0.0000000000000000e+00 0.0000000000000000e+00  3.9728966497927260e-04 -3.5123643463945195e-05 0.0000000000000000e+00 -3.5123643463945195e-05 3.9819405323290852e-04 0.0000000000000000e+00 0.0000000000000000e+00 0.0000000000000000e+00 0.0000000000000000e+00  3.8164075926035981e-04 -4.2033764201837610e-05 0.0000000000000000e+00 -4.2033764201837610e-05 3.8273888669301766e-04 0.0000000000000000e+00 0.0000000000000000e+00 0.0000000000000000e+00 0.0000000000000000e+00  3.6130327200988434e-04 -4.9892399821430849e-05 0.0000000000000000e+00 -4.9892399821430849e-05 3.6249216192339089e-04 0.0000000000000000e+00 0.0000000000000000e+00 0.0000000000000000e+00 0.0000000000000000e+00  3.3538684343098263e-04 -5.8064124182009190e-05 0.0000000000000000e+00 -5.8064124182009190e-05 3.3682022525325381e-04 0.0000000000000000e+00 0.0000000000000000e+00 0.0000000000000000e+00 0.0000000000000000e+00  3.0373471973383162e-04 -6.6164618051058519e-05 0.0000000000000000e+00 -6.6164618051058519e-05 3.0523550709792469e-04 0.0000000000000000e+00 0.0000000000000000e+00 0.0000000000000000e+00 0.0000000000000000e+00  2.6633921539950909e-04 -7.5749573888108662e-05 0.0000000000000000e+00 -7.5749573888108662e-05 2.6865419122529938e-04 0.0000000000000000e+00 0.0000000000000000e+00 0.0000000000000000e+00 0.0000000000000000e+00  2.1985889946218187e-04 -8.8336764210026616e-05 0.0000000000000000e+00 -8.8336764210026616e-05 2.2292133181905268e-04 0.0000000000000000e+00 0.0000000000000000e+00 0.0000000000000000e+00 0.0000000000000000e+00  1.5969614251908567e-04 -1.0086158146102499e-04 0.0000000000000000e+00 -1.0086158146102499e-04 1.6204387819898690e-04 0.0000000000000000e+00 0.0000000000000000e+00 0.0000000000000000e+00 0.0000000000000000e+00  8.7716689522244205e-05 -1.0994389000572721e-04 0.0000000000000000e+00 -1.0994389000572721e-04 8.9821789525107069e-05 0.0000000000000000e+00 0.0000000000000000e+00 0.0000000000000000e+00 0.0000000000000000e+00  1.0359574799996954e-05 -1.1305509788236403e-04 0.0000000000000000e+00 -1.1305509788236403e-04 1.0772211583372590e-05 0.0000000000000000e+00 0.0000000000000000e+00 0.0000000000000000e+00 0.0000000000000000e+00  -6.7354400839153434e-05 -1.1276476883029414e-04 0.0000000000000000e+00 -1.1276476883029414e-04 -6.7120744931985747e-05 0.0000000000000000e+00 0.0000000000000000e+00 0.0000000000000000e+00 0.0000000000000000e+00  -1.4409160496226477e-04 -1.1076068890052501e-04 0.0000000000000000e+00 -1.1076068890052501e-04 -1.4407044649024489e-04 0.0000000000000000e+00 0.0000000000000000e+00 0.0000000000000000e+00 0.0000000000000000e+00  -2.1903725927694456e-04 -1.0668621058486567e-04 0.0000000000000000e+00 -1.0668621058486567e-04 -2.1964204917398995e-04 0.0000000000000000e+00 0.0000000000000000e+00 0.0000000000000000e+00 0.0000000000000000e+00  -2.8958381170773043e-04 -9.9448849615829920e-05 0.0000000000000000e+00 -9.9448849615829920e-05 -2.9116720203879081e-04 0.0000000000000000e+00 0.0000000000000000e+00 0.0000000000000000e+00 0.0000000000000000e+00  -3.5156223571797490e-04 -8.8991697213754032e-05 0.0000000000000000e+00 -8.8991697213754032e-05 -3.5399542395985530e-04 0.0000000000000000e+00 0.0000000000000000e+00 0.0000000000000000e+00 0.0000000000000000e+00  -4.0189702178366441e-04 -7.7626493184936648e-05 0.0000000000000000e+00 -7.7626493184936648e-05 -4.0339334526785103e-04 0.0000000000000000e+00 0.0000000000000000e+00 0.0000000000000000e+00 0.0000000000000000e+00  -4.4215983101949000e-04 -6.9122052507983631e-05 0.0000000000000000e+00 -6.9122052507983631e-05 -4.4374948388157571e-04 0.0000000000000000e+00 0.0000000000000000e+00 0.0000000000000000e+00 0.0000000000000000e+00  -4.7719409639169873e-04 -6.2745018185514736e-05 0.0000000000000000e+00 -6.2745018185514736e-05 -4.7793583351798724e-04 0.0000000000000000e+00 0.0000000000000000e+00 0.0000000000000000e+00 0.0000000000000000e+00  -5.0952789719101708e-04 -5.6720145644749664e-05 0.0000000000000000e+00 -5.6720145644749664e-05 -5.1061252497933531e-04 0.0000000000000000e+00 0.0000000000000000e+00 0.0000000000000000e+00 0.0000000000000000e+00  -5.3644935497667765e-04 -4.8757193959644916e-05 0.0000000000000000e+00 -4.8757193959644916e-05 -5.3790097030107496e-04 0.0000000000000000e+00 0.0000000000000000e+00 0.0000000000000000e+00 0.0000000000000000e+00  -5.5654125077812854e-04 -4.0602277480964138e-05 0.0000000000000000e+00 -4.0602277480964138e-05 -5.5762642492039312e-04 0.0000000000000000e+00 0.0000000000000000e+00 0.0000000000000000e+00 0.0000000000000000e+00  -5.7154171534726001e-04 -3.4017735285625223e-05 0.0000000000000000e+00 -3.4017735285625223e-05 -5.7245459845954138e-04 0.0000000000000000e+00 0.0000000000000000e+00 0.0000000000000000e+00 0.0000000000000000e+00  -5.8313178841315179e-04 -2.8827647041933393e-05 0.0000000000000000e+00 -2.8827647041933393e-05 -5.8373143950760109e-04 0.0000000000000000e+00 0.0000000000000000e+00 0.0000000000000000e+00 0.0000000000000000e+00  -5.9219211251816542e-04 -2.4436902724015508e-05 0.0000000000000000e+00 -2.4436902724015508e-05 -5.9263438346227829e-04 0.0000000000000000e+00 0.0000000000000000e+00 0.0000000000000000e+00 0.0000000000000000e+00  -5.9930194264852814e-04 -2.0564063635840268e-05 0.0000000000000000e+00 -2.0564063635840268e-05 -5.9969552577968707e-04 0.0000000000000000e+00 0.0000000000000000e+00 0.0000000000000000e+00 0.0000000000000000e+00  -6.0496528383940657e-04 -1.7492361742744728e-05 0.0000000000000000e+00 -1.7492361742744728e-05 -6.0525505587476040e-04 0.0000000000000000e+00 0.0000000000000000e+00 0.0000000000000000e+00 0.0000000000000000e+00  -6.0933444069056521e-04 -1.4701616333948596e-05 0.0000000000000000e+00 -1.4701616333948596e-05 -6.0954990087253990e-04 0.0000000000000000e+00 0.0000000000000000e+00 0.0000000000000000e+00 0.0000000000000000e+00  -6.1284798775668853e-04 -1.2295484886411828e-05 0.0000000000000000e+00 -1.2295484886411828e-05 -6.1304030190638436e-04 0.0000000000000000e+00 0.0000000000000000e+00 0.0000000000000000e+00 0.0000000000000000e+00  -6.1563942905033678e-04 -1.0225556469653417e-05 0.0000000000000000e+00 -1.0225556469653417e-05 -6.1577724654348557e-04 0.0000000000000000e+00 0.0000000000000000e+00 0.0000000000000000e+00 0.0000000000000000e+00  -6.1783315786922499e-04 -8.2883858578898708e-06 0.0000000000000000e+00 -8.2883858578898708e-06 -6.1795823013312029e-04 0.0000000000000000e+00 0.0000000000000000e+00 0.0000000000000000e+00 0.0000000000000000e+00  -6.1956846539927449e-04 -6.5308379231610979e-06 0.0000000000000000e+00 -6.5308379231610979e-06 -6.1967355515322542e-04 0.0000000000000000e+00 0.0000000000000000e+00 0.0000000000000000e+00 0.0000000000000000e+00  -6.2086478375666216e-04 -4.8398378614610966e-06 0.0000000000000000e+00 -4.8398378614610966e-06 -6.2096118689671908e-04 0.0000000000000000e+00 0.0000000000000000e+00 0.0000000000000000e+00 0.0000000000000000e+00  -6.2178165749418308e-04 -3.2075785011412311e-06 0.0000000000000000e+00 -3.2075785011412311e-06 -6.2187223268769245e-04 0.0000000000000000e+00 0.0000000000000000e+00 0.0000000000000000e+00 0.0000000000000000e+00  -6.2232478696784760e-04 -1.5984111843885162e-06 0.0000000000000000e+00 -1.5984111843885162e-06 -6.2241257111809978e-04 0.0000000000000000e+00 0.0000000000000000e+00 0.0000000000000000e+00 0.0000000000000000e+00  -6.2250605252437839e-04 2.7710910561585813e-10 0.0000000000000000e+00 2.7710910561585813e-10 -6.2259310025549407e-04 0.0000000000000000e+00 0.0000000000000000e+00 0.0000000000000000e+00 0.0000000000000000e+00  -6.2232455565461601e-04 1.5988754919096064e-06 0.0000000000000000e+00 1.5988754919096064e-06 -6.2241232129804744e-04 0.0000000000000000e+00 0.0000000000000000e+00 0.0000000000000000e+00 0.0000000000000000e+00  -6.2178127877215430e-04 3.2077762657195403e-06 0.0000000000000000e+00 3.2077762657195403e-06 -6.2187181689144638e-04 0.0000000000000000e+00 0.0000000000000000e+00 0.0000000000000000e+00 0.0000000000000000e+00  -6.2086442733839215e-04 4.8396032983926524e-06 0.0000000000000000e+00 4.8396032983926524e-06 -6.2096077439844765e-04 0.0000000000000000e+00 0.0000000000000000e+00 0.0000000000000000e+00 0.0000000000000000e+00  -6.1956838795028835e-04 6.5300246107588757e-06 0.0000000000000000e+00 6.5300246107588757e-06 -6.1967340347819915e-04 0.0000000000000000e+00 0.0000000000000000e+00 0.0000000000000000e+00 0.0000000000000000e+00  -6.1783370192489714e-04 8.2868813434534794e-06 0.0000000000000000e+00 8.2868813434534794e-06 -6.1795868302135578e-04 0.0000000000000000e+00 0.0000000000000000e+00 0.0000000000000000e+00 0.0000000000000000e+00  -6.1564102023884272e-04 1.0223288384167360e-05 0.0000000000000000e+00 1.0223288384167360e-05 -6.1577872903350261e-04 0.0000000000000000e+00 0.0000000000000000e+00 0.0000000000000000e+00 0.0000000000000000e+00  -6.1285111387704991e-04 1.2292443309148285e-05 0.0000000000000000e+00 1.2292443309148285e-05 -6.1304331538255185e-04 0.0000000000000000e+00 0.0000000000000000e+00 0.0000000000000000e+00 0.0000000000000000e+00  -6.0933965058894998e-04 1.4697862073152614e-05 0.0000000000000000e+00 1.4697862073152614e-05 -6.0955498762993714e-04 0.0000000000000000e+00 0.0000000000000000e+00 0.0000000000000000e+00 0.0000000000000000e+00  -6.0497313851776342e-04 1.7488030581493920e-05 0.0000000000000000e+00 1.7488030581493920e-05 -6.0526279182525019e-04 0.0000000000000000e+00 0.0000000000000000e+00 0.0000000000000000e+00 0.0000000000000000e+00  -5.9931293722791372e-04 2.0559399369166980e-05 0.0000000000000000e+00 2.0559399369166980e-05 -5.9970643465903693e-04 0.0000000000000000e+00 0.0000000000000000e+00 0.0000000000000000e+00 0.0000000000000000e+00  -5.9220666996360517e-04 2.4432181268045454e-05 0.0000000000000000e+00 2.4432181268045454e-05 -5.9264888074501000e-04 0.0000000000000000e+00 0.0000000000000000e+00 0.0000000000000000e+00 0.0000000000000000e+00  -5.8315025875927155e-04 2.8823229272541292e-05 0.0000000000000000e+00 2.8823229272541292e-05 -5.8374989400111483e-04 0.0000000000000000e+00 0.0000000000000000e+00 0.0000000000000000e+00 0.0000000000000000e+00  -5.7156404099123221e-04 3.4014107516945078e-05 0.0000000000000000e+00 3.4014107516945078e-05 -5.7247692400244068e-04 0.0000000000000000e+00 0.0000000000000000e+00 0.0000000000000000e+00 0.0000000000000000e+00  -5.5656688889724876e-04 4.0599518233512651e-05 0.0000000000000000e+00 4.0599518233512651e-05 -5.5765216211151926e-04 0.0000000000000000e+00 0.0000000000000000e+00 0.0000000000000000e+00 0.0000000000000000e+00  -5.3647857497282148e-04 4.8755233772704113e-05 0.0000000000000000e+00 4.8755233772704113e-05 -5.3793023115334521e-04 0.0000000000000000e+00 0.0000000000000000e+00 0.0000000000000000e+00 0.0000000000000000e+00  -5.0956063403600398e-04 5.6719891338168622e-05 0.0000000000000000e+00 5.6719891338168622e-05 -5.1064575321736988e-04 0.0000000000000000e+00 0.0000000000000000e+00 0.0000000000000000e+00 0.0000000000000000e+00  -4.7722822340416112e-04 6.2747879601404762e-05 0.0000000000000000e+00 6.2747879601404762e-05 -4.7797051363426065e-04 0.0000000000000000e+00 0.0000000000000000e+00 0.0000000000000000e+00 0.0000000000000000e+00  -4.4219176712261259e-04 6.9127666789245066e-05 0.0000000000000000e+00 6.9127666789245066e-05 -4.4378180819196233e-04 0.0000000000000000e+00 0.0000000000000000e+00 0.0000000000000000e+00 0.0000000000000000e+00  -4.0192514819346729e-04 7.7633635489810412e-05 0.0000000000000000e+00 7.7633635489810412e-05 -4.0342188692602806e-04 0.0000000000000000e+00 0.0000000000000000e+00 0.0000000000000000e+00 0.0000000000000000e+00  -3.5158606027948299e-04 8.8999993647456477e-05 0.0000000000000000e+00 8.8999993647456477e-05 -3.5401954148123925e-04 0.0000000000000000e+00 0.0000000000000000e+00 0.0000000000000000e+00 0.0000000000000000e+00  -2.8960190240135981e-04 9.9458416504582894e-05 0.0000000000000000e+00 9.9458416504582894e-05 -2.9118568140430924e-04 0.0000000000000000e+00 0.0000000000000000e+00 0.0000000000000000e+00 0.0000000000000000e+00  -2.1904815487180660e-04 1.0669669145015298e-04 0.0000000000000000e+00 1.0669669145015298e-04 -2.1965312632382832e-04 0.0000000000000000e+00 0.0000000000000000e+00 0.0000000000000000e+00 0.0000000000000000e+00  -1.4409461497715573e-04 1.1077121102550007e-04 0.0000000000000000e+00 1.1077121102550007e-04 -1.4407331273161194e-04 0.0000000000000000e+00 0.0000000000000000e+00 0.0000000000000000e+00 0.0000000000000000e+00  -6.7350033300878396e-05 1.1277443400799545e-04 0.0000000000000000e+00 1.1277443400799545e-04 -6.7116015752527306e-05 0.0000000000000000e+00 0.0000000000000000e+00 0.0000000000000000e+00 0.0000000000000000e+00  1.0369985845525038e-05 1.1306348532740813e-04 0.0000000000000000e+00 1.1306348532740813e-04 1.0782908741410817e-05 0.0000000000000000e+00 0.0000000000000000e+00 0.0000000000000000e+00 0.0000000000000000e+00  8.7731767091844747e-05 1.0995102623521084e-04 0.0000000000000000e+00 1.0995102623521084e-04 8.9837297078287332e-05 0.0000000000000000e+00 0.0000000000000000e+00 0.0000000000000000e+00 0.0000000000000000e+00  1.5971532984126400e-04 1.0086697661554502e-04 0.0000000000000000e+00 1.0086697661554502e-04 1.6206349477628699e-04 0.0000000000000000e+00 0.0000000000000000e+00 0.0000000000000000e+00 0.0000000000000000e+00  2.1988035264785009e-04 8.8339117643205598e-05 0.0000000000000000e+00 8.8339117643205598e-05 2.2294339255504977e-04 0.0000000000000000e+00 0.0000000000000000e+00 0.0000000000000000e+00 0.0000000000000000e+00  2.6635908846885705e-04 7.5748568781140182e-05 0.0000000000000000e+00 7.5748568781140182e-05 2.6867457807929363e-04 0.0000000000000000e+00 0.0000000000000000e+00 0.0000000000000000e+00 0.0000000000000000e+00  3.0375072360800802e-04 6.6161806644381559e-05 0.0000000000000000e+00 6.6161806644381559e-05 3.0525155736537248e-04 0.0000000000000000e+00 0.0000000000000000e+00 0.0000000000000000e+00 0.0000000000000000e+00  3.3539896243438825e-04 5.8060517638170151e-05 0.0000000000000000e+00 5.8060517638170151e-05 3.3683243256968164e-04 0.0000000000000000e+00 0.0000000000000000e+00 0.0000000000000000e+00 0.0000000000000000e+00  3.6131183296048369e-04 4.9887933530306529e-05 0.0000000000000000e+00 4.9887933530306529e-05 3.6250072136749040e-04 0.0000000000000000e+00 0.0000000000000000e+00 0.0000000000000000e+00 0.0000000000000000e+00  3.8164521917189484e-04 4.2028503395187234e-05 0.0000000000000000e+00 4.2028503395187234e-05 3.8274332820507537e-04 0.0000000000000000e+00 0.0000000000000000e+00 0.0000000000000000e+00 0.0000000000000000e+00  3.9728996040987630e-04 3.5118098982690871e-05 0.0000000000000000e+00 3.5118098982690871e-05 3.9819428454869129e-04 0.0000000000000000e+00 0.0000000000000000e+00 0.0000000000000000e+00 0.0000000000000000e+00  4.0921513097173247e-04 2.9331311674030742e-05 0.0000000000000000e+00 2.9331311674030742e-05 4.0987456644338283e-04 0.0000000000000000e+00 0.0000000000000000e+00 0.0000000000000000e+00 0.0000000000000000e+00  4.1818662105652389e-04 2.4214235629740887e-05 0.0000000000000000e+00 2.4214235629740887e-05 4.1871310226375690e-04 0.0000000000000000e+00 0.0000000000000000e+00 0.0000000000000000e+00 0.0000000000000000e+00  4.2507751680416733e-04 2.0088732937918875e-05 0.0000000000000000e+00 2.0088732937918875e-05 4.2549187151463331e-04 0.0000000000000000e+00 0.0000000000000000e+00 0.0000000000000000e+00 0.0000000000000000e+00  4.3025562988378038e-04 1.6642188676331050e-05 0.0000000000000000e+00 1.6642188676331050e-05 4.3054959152014560e-04 0.0000000000000000e+00 0.0000000000000000e+00 0.0000000000000000e+00 0.0000000000000000e+00  4.3419966879957764e-04 1.3714009791650636e-05 0.0000000000000000e+00 1.3714009791650636e-05 4.3444164742575481e-04 0.0000000000000000e+00 0.0000000000000000e+00 0.0000000000000000e+00 0.0000000000000000e+00  4.3723309484886626e-04 1.1311696428934526e-05 0.0000000000000000e+00 1.1311696428934526e-05 4.3741170943509885e-04 0.0000000000000000e+00 0.0000000000000000e+00 0.0000000000000000e+00 0.0000000000000000e+00  4.3952734159006293e-04 9.2157069469436990e-06 0.0000000000000000e+00 9.2157069469436990e-06 4.3967406879986211e-04 0.0000000000000000e+00 0.0000000000000000e+00 0.0000000000000000e+00 0.0000000000000000e+00  4.4126475473941996e-04 7.3982795954190684e-06 0.0000000000000000e+00 7.3982795954190684e-06 4.4138655525056275e-04 0.0000000000000000e+00 0.0000000000000000e+00 0.0000000000000000e+00 0.0000000000000000e+00  4.4250629921575873e-04 5.7642494907195185e-06 0.0000000000000000e+00 5.7642494907195185e-06 4.4261294863065189e-04 0.0000000000000000e+00 0.0000000000000000e+00 0.0000000000000000e+00 0.0000000000000000e+00  4.4331185358841604e-04 4.2864605637018436e-06 0.0000000000000000e+00 4.2864605637018436e-06 4.4340779629859943e-04 0.0000000000000000e+00 0.