<?xml version="1.0"?>
<VTKFile type="UnstructuredGrid"  version="0.1"  >
<UnstructuredGrid>
<Piece  NumberOfPoints="11156" NumberOfCells="22000">
<Points>
<DataArray  type="Float64"  NumberOfComponents="3"  format="ascii">0 0 0  2 0 0  4 0 0  6 0 0  8 0 0  10 0 0  12 0 0  14 0 0  16 0 0  18 0 0  20 0 0  22 0 0  24 0 0  26 0 0  28 0 0  30 0 0  32 0 0  34 0 0  36 0 0  38 0 0  40 0 0  42 0 0  44 0 0  46 0 0  48 0 0  50 0 0  52 0 0  54 0 0  56 0 0  58 0 0  60 0 0  62 0 0  64 0 0  66 0 0  68 0 0  70 0 0  72 0 0  74 0 0  76 0 0  78 0 0  80 0 0  82 0 0  84 0 0  86 0 0  88 0 0  90 0 0  92 0 0  94 0 0  96 0 0  98 0 0  100 0 0  102 0 0  104 0 0  106 0 0  108 0 0  110 0 0  112 0 0  114 0 0  116 0 0  118 0 0  120 0 0  122 0 0  124 0 0  126 0 0  128 0 0  130 0 0  132 0 0  134 0 0  136 0 0  138 0 0  140 0 0  142 0 0  144 0 0  146 0 0  148 0 0  150 0 0  152 0 0  154 0 0  156 0 0  158 0 0  160 0 0  162 0 0  164 0 0  166 0 0  168 0 0  170 0 0  172 0 0  174 0 0  176 0 0  178 0 0  180 0 0  182 0 0  184 0 0  186 0 0  188 0 0  190 0 0  192 0 0  194 0 0  196 0 0  198 0 0  200 0 0  0 2 0  2 2 0  4 2 0  6 2 0  8 2 0  10 2 0  12 2 0  14 2 0  16 2 0  18 2 0  20 2 0  22 2 0  24 2 0  26 2 0  28 2 0  30 2 0  32 2 0  34 2 0  36 2 0  38 2 0  40 2 0  42 2 0  44 2 0  46 2 0  48 2 0  50 2 0  52 2 0  54 2 0  56 2 0  58 2 0  60 2 0  62 2 0  64 2 0  66 2 0  68 2 0  70 2 0  72 2 0  74 2 0  76 2 0  78 2 0  80 2 0  82 2 0  84 2 0  86 2 0  88 2 0  90 2 0  92 2 0  94 2 0  96 2 0  98 2 0  100 2 0  102 2 0  104 2 0  106 2 0  108 2 0  110 2 0  112 2 0  114 2 0  116 2 0  118 2 0  120 2 0  122 2 0  124 2 0  126 2 0  128 2 0  130 2 0  132 2 0  134 2 0  136 2 0  138 2 0  140 2 0  142 2 0  144 2 0  146 2 0  148 2 0  150 2 0  152 2 0  154 2 0  156 2 0  158 2 0  160 2 0  162 2 0  164 2 0  166 2 0  168 2 0  170 2 0  172 2 0  174 2 0  176 2 0  178 2 0  180 2 0  182 2 0  184 2 0  186 2 0  188 2 0  190 2 0  192 2 0  194 2 0  196 2 0  198 2 0  200 2 0  0 4 0  2 4 0  4 4 0  6 4 0  8 4 0  10 4 0  12 4 0  14 4 0  16 4 0  18 4 0  20 4 0  22 4 0  24 4 0  26 4 0  28 4 0  30 4 0  32 4 0  34 4 0  36 4 0  38 4 0  40 4 0  42 4 0  44 4 0  46 4 0  48 4 0  50 4 0  52 4 0  54 4 0  56 4 0  58 4 0  60 4 0  62 4 0  64 4 0  66 4 0  68 4 0  70 4 0  72 4 0  74 4 0  76 4 0  78 4 0  80 4 0  82 4 0  84 4 0  86 4 0  88 4 0  90 4 0  92 4 0  94 4 0  96 4 0  98 4 0  100 4 0  102 4 0  104 4 0  106 4 0  108 4 0  110 4 0  112 4 0  114 4 0  116 4 0  118 4 0  120 4 0  122 4 0  124 4 0  126 4 0  128 4 0  130 4 0  132 4 0  134 4 0  136 4 0  138 4 0  140 4 0  142 4 0  144 4 0  146 4 0  148 4 0  150 4 0  152 4 0  154 4 0  156 4 0  158 4 0  160 4 0  162 4 0  164 4 0  166 4 0  168 4 0  170 4 0  172 4 0  174 4 0  176 4 0  178 4 0  180 4 0  182 4 0  184 4 0  186 4 0  188 4 0  190 4 0  192 4 0  194 4 0  196 4 0  198 4 0  200 4 0  0 6 0  2 6 0  4 6 0  6 6 0  8 6 0  10 6 0  12 6 0  14 6 0  16 6 0  18 6 0  20 6 0  22 6 0  24 6 0  26 6 0  28 6 0  30 6 0  32 6 0  34 6 0  36 6 0  38 6 0  40 6 0  42 6 0  44 6 0  46 6 0  48 6 0  50 6 0  52 6 0  54 6 0  56 6 0  58 6 0  60 6 0  62 6 0  64 6 0  66 6 0  68 6 0  70 6 0  72 6 0  74 6 0  76 6 0  78 6 0  80 6 0  82 6 0  84 6 0  86 6 0  88 6 0  90 6 0  92 6 0  94 6 0  96 6 0  98 6 0  100 6 0  102 6 0  104 6 0  106 6 0  108 6 0  110 6 0  112 6 0  114 6 0  116 6 0  118 6 0  120 6 0  122 6 0  124 6 0  126 6 0  128 6 0  130 6 0  132 6 0  134 6 0  136 6 0  138 6 0  140 6 0  142 6 0  144 6 0  146 6 0  148 6 0  150 6 0  152 6 0  154 6 0  156 6 0  158 6 0  160 6 0  162 6 0  164 6 0  166 6 0  168 6 0  170 6 0  172 6 0  174 6 0  176 6 0  178 6 0  180 6 0  182 6 0  184 6 0  186 6 0  188 6 0  190 6 0  192 6 0  194 6 0  196 6 0  198 6 0  200 6 0  0 8 0  2 8 0  4 8 0  6 8 0  8 8 0  10 8 0  12 8 0  14 8 0  16 8 0  18 8 0  20 8 0  22 8 0  24 8 0  26 8 0  28 8 0  30 8 0  32 8 0  34 8 0  36 8 0  38 8 0  40 8 0  42 8 0  44 8 0  46 8 0  48 8 0  50 8 0  52 8 0  54 8 0  56 8 0  58 8 0  60 8 0  62 8 0  64 8 0  66 8 0  68 8 0  70 8 0  72 8 0  74 8 0  76 8 0  78 8 0  80 8 0  82 8 0  84 8 0  86 8 0  88 8 0  90 8 0  92 8 0  94 8 0  96 8 0  98 8 0  100 8 0  102 8 0  104 8 0  106 8 0  108 8 0  110 8 0  112 8 0  114 8 0  116 8 0  118 8 0  120 8 0  122 8 0  124 8 0  126 8 0  128 8 0  130 8 0  132 8 0  134 8 0  136 8 0  138 8 0  140 8 0  142 8 0  144 8 0  146 8 0  148 8 0  150 8 0  152 8 0  154 8 0  156 8 0  158 8 0  160 8 0  162 8 0  164 8 0  166 8 0  168 8 0  170 8 0  172 8 0  174 8 0  176 8 0  178 8 0  180 8 0  182 8 0  184 8 0  186 8 0  188 8 0  190 8 0  192 8 0  194 8 0  196 8 0  198 8 0  200 8 0  0 10 0  2 10 0  4 10 0  6 10 0  8 10 0  10 10 0  12 10 0  14 10 0  16 10 0  18 10 0  20 10 0  22 10 0  24 10 0  26 10 0  28 10 0  30 10 0  32 10 0  34 10 0  36 10 0  38 10 0  40 10 0  42 10 0  44 10 0  46 10 0  48 10 0  50 10 0  52 10 0  54 10 0  56 10 0  58 10 0  60 10 0  62 10 0  64 10 0  66 10 0  68 10 0  70 10 0  72 10 0  74 10 0  76 10 0  78 10 0  80 10 0  82 10 0  84 10 0  86 10 0  88 10 0  90 10 0  92 10 0  94 10 0  96 10 0  98 10 0  100 10 0  102 10 0  104 10 0  106 10 0  108 10 0  110 10 0  112 10 0  114 10 0  116 10 0  118 10 0  120 10 0  122 10 0  124 10 0  126 10 0  128 10 0  130 10 0  132 10 0  134 10 0  136 10 0  138 10 0  140 10 0  142 10 0  144 10 0  146 10 0  148 10 0  150 10 0  152 10 0  154 10 0  156 10 0  158 10 0  160 10 0  162 10 0  164 10 0  166 10 0  168 10 0  170 10 0  172 10 0  174 10 0  176 10 0  178 10 0  180 10 0  182 10 0  184 10 0  186 10 0  188 10 0  190 10 0  192 10 0  194 10 0  196 10 0  198 10 0  200 10 0  0 12 0  2 12 0  4 12 0  6 12 0  8 12 0  10 12 0  12 12 0  14 12 0  16 12 0  18 12 0  20 12 0  22 12 0  24 12 0  26 12 0  28 12 0  30 12 0  32 12 0  34 12 0  36 12 0  38 12 0  40 12 0  42 12 0  44 12 0  46 12 0  48 12 0  50 12 0  52 12 0  54 12 0  56 12 0  58 12 0  60 12 0  62 12 0  64 12 0  66 12 0  68 12 0  70 12 0  72 12 0  74 12 0  76 12 0  78 12 0  80 12 0  82 12 0  84 12 0  86 12 0  88 12 0  90 12 0  92 12 0  94 12 0  96 12 0  98 12 0  100 12 0  102 12 0  104 12 0  106 12 0  108 12 0  110 12 0  112 12 0  114 12 0  116 12 0  118 12 0  120 12 0  122 12 0  124 12 0  126 12 0  128 12 0  130 12 0  132 12 0  134 12 0  136 12 0  138 12 0  140 12 0  142 12 0  144 12 0  146 12 0  148 12 0  150 12 0  152 12 0  154 12 0  156 12 0  158 12 0  160 12 0  162 12 0  164 12 0  166 12 0  168 12 0  170 12 0  172 12 0  174 12 0  176 12 0  178 12 0  180 12 0  182 12 0  184 12 0  186 12 0  188 12 0  190 12 0  192 12 0  194 12 0  196 12 0  198 12 0  200 12 0  0 14 0  2 14 0  4 14 0  6 14 0  8 14 0  10 14 0  12 14 0  14 14 0  16 14 0  18 14 0  20 14 0  22 14 0  24 14 0  26 14 0  28 14 0  30 14 0  32 14 0  34 14 0  36 14 0  38 14 0  40 14 0  42 14 0  44 14 0  46 14 0  48 14 0  50 14 0  52 14 0  54 14 0  56 14 0  58 14 0  60 14 0  62 14 0  64 14 0  66 14 0  68 14 0  70 14 0  72 14 0  74 14 0  76 14 0  78 14 0  80 14 0  82 14 0  84 14 0  86 14 0  88 14 0  90 14 0  92 14 0  94 14 0  96 14 0  98 14 0  100 14 0  102 14 0  104 14 0  106 14 0  108 14 0  110 14 0  112 14 0  114 14 0  116 14 0  118 14 0  120 14 0  122 14 0  124 14 0  126 14 0  128 14 0  130 14 0  132 14 0  134 14 0  136 14 0  138 14 0  140 14 0  142 14 0  144 14 0  146 14 0  148 14 0  150 14 0  152 14 0  154 14 0  156 14 0  158 14 0  160 14 0  162 14 0  164 14 0  166 14 0  168 14 0  170 14 0  172 14 0  174 14 0  176 14 0  178 14 0  180 14 0  182 14 0  184 14 0  186 14 0  188 14 0  190 14 0  192 14 0  194 14 0  196 14 0  198 14 0  200 14 0  0 16 0  2 16 0  4 16 0  6 16 0  8 16 0  10 16 0  12 16 0  14 16 0  16 16 0  18 16 0  20 16 0  22 16 0  24 16 0  26 16 0  28 16 0  30 16 0  32 16 0  34 16 0  36 16 0  38 16 0  40 16 0  42 16 0  44 16 0  46 16 0  48 16 0  50 16 0  52 16 0  54 16 0  56 16 0  58 16 0  60 16 0  62 16 0  64 16 0  66 16 0  68 16 0  70 16 0  72 16 0  74 16 0  76 16 0  78 16 0  80 16 0  82 16 0  84 16 0  86 16 0  88 16 0  90 16 0  92 16 0  94 16 0  96 16 0  98 16 0  100 16 0  102 16 0  104 16 0  106 16 0  108 16 0  110 16 0  112 16 0  114 16 0  116 16 0  118 16 0  120 16 0  122 16 0  124 16 0  126 16 0  128 16 0  130 16 0  132 16 0  134 16 0  136 16 0  138 16 0  140 16 0  142 16 0  144 16 0  146 16 0  148 16 0  150 16 0  152 16 0  154 16 0  156 16 0  158 16 0  160 16 0  162 16 0  164 16 0  166 16 0  168 16 0  170 16 0  172 16 0  174 16 0  176 16 0  178 16 0  180 16 0  182 16 0  184 16 0  186 16 0  188 16 0  190 16 0  192 16 0  194 16 0  196 16 0  198 16 0  200 16 0  0 18 0  2 18 0  4 18 0  6 18 0  8 18 0  10 18 0  12 18 0  14 18 0  16 18 0  18 18 0  20 18 0  22 18 0  24 18 0  26 18 0  28 18 0  30 18 0  32 18 0  34 18 0  36 18 0  38 18 0  40 18 0  42 18 0  44 18 0  46 18 0  48 18 0  50 18 0  52 18 0  54 18 0  56 18 0  58 18 0  60 18 0  62 18 0  64 18 0  66 18 0  68 18 0  70 18 0  72 18 0  74 18 0  76 18 0  78 18 0  80 18 0  82 18 0  84 18 0  86 18 0  88 18 0  90 18 0  92 18 0  94 18 0  96 18 0  98 18 0  100 18 0  102 18 0  104 18 0  106 18 0  108 18 0  110 18 0  112 18 0  114 18 0  116 18 0  118 18 0  120 18 0  122 18 0  124 18 0  126 18 0  128 18 0  130 18 0  132 18 0  134 18 0  136 18 0  138 18 0  140 18 0  142 18 0  144 18 0  146 18 0  148 18 0  150 18 0  152 18 0  154 18 0  156 18 0  158 18 0  160 18 0  162 18 0  164 18 0  166 18 0  168 18 0  170 18 0  172 18 0  174 18 0  176 18 0  178 18 0  180 18 0  182 18 0  184 18 0  186 18 0  188 18 0  190 18 0  192 18 0  194 18 0  196 18 0  198 18 0  200 18 0  0 20 0  2 20 0  4 20 0  6 20 0  8 20 0  10 20 0  12 20 0  14 20 0  16 20 0  18 20 0  20 20 0  22 20 0  24 20 0  26 20 0  28 20 0  30 20 0  32 20 0  34 20 0  36 20 0  38 20 0  40 20 0  42 20 0  44 20 0  46 20 0  48 20 0  50 20 0  52 20 0  54 20 0  56 20 0  58 20 0  60 20 0  62 20 0  64 20 0  66 20 0  68 20 0  70 20 0  72 20 0  74 20 0  76 20 0  78 20 0  80 20 0  82 20 0  84 20 0  86 20 0  88 20 0  90 20 0  92 20 0  94 20 0  96 20 0  98 20 0  100 20 0  102 20 0  104 20 0  106 20 0  108 20 0  110 20 0  112 20 0  114 20 0  116 20 0  118 20 0  120 20 0  122 20 0  124 20 0  126 20 0  128 20 0  130 20 0  132 20 0  134 20 0  136 20 0  138 20 0  140 20 0  142 20 0  144 20 0  146 20 0  148 20 0  150 20 0  152 20 0  154 20 0  156 20 0
[...]
<PointData  Tensors="stress"> 
<DataArray  type="Float64"  Name="stress"  NumberOfComponents="9" format="ascii">3.6478233793736241e-04 -7.6223291270793771e-11 0.0000000000000000e+00 -7.6223291270793771e-11 3.6475821313985973e-04 0.0000000000000000e+00 0.0000000000000000e+00 0.0000000000000000e+00 0.0000000000000000e+00  3.6499619691501741e-04 5.4038277506122835e-08 0.0000000000000000e+00 5.4038277506122835e-08 3.6491312262693407e-04 0.0000000000000000e+00 0.0000000000000000e+00 0.0000000000000000e+00 0.0000000000000000e+00  3.6558773216712810e-04 -1.9415335869550604e-07 0.0000000000000000e+00 -1.9415335869550604e-07 3.6559631986297361e-04 0.0000000000000000e+00 0.0000000000000000e+00 0.0000000000000000e+00 0.0000000000000000e+00  3.6615832310061674e-04 -8.3886976679027363e-07 0.0000000000000000e+00 -8.3886976679027363e-07 3.6620833690103325e-04 0.0000000000000000e+00 0.0000000000000000e+00 0.0000000000000000e+00 0.0000000000000000e+00  3.6648375008950409e-04 -1.7780295641811048e-06 0.0000000000000000e+00 -1.7780295641811048e-06 3.6655603025514705e-04 0.0000000000000000e+00 0.0000000000000000e+00 0.0000000000000000e+00 0.0000000000000000e+00  3.6646987167632933e-04 -2.9300590710664120e-06 0.0000000000000000e+00 -2.9300590710664120e-06 3.6655474547563386e-04 0.0000000000000000e+00 0.0000000000000000e+00 0.0000000000000000e+00 0.0000000000000000e+00  3.6607587335652224e-04 -4.2412662206355985e-06 0.0000000000000000e+00 -4.2412662206355985e-06 3.6616979626448486e-04 0.0000000000000000e+00 0.0000000000000000e+00 0.0000000000000000e+00 0.0000000000000000e+00  3.6527779427399570e-04 -5.6881475401222369e-06 0.0000000000000000e+00 -5.6881475401222369e-06 3.6538135125367899e-04 0.0000000000000000e+00 0.0000000000000000e+00 0.0000000000000000e+00 0.0000000000000000e+00  3.6405700011572399e-04 -7.2811600375203243e-06 0.0000000000000000e+00 -7.2811600375203243e-06 3.6417450500710253e-04 0.0000000000000000e+00 0.0000000000000000e+00 0.0000000000000000e+00 0.0000000000000000e+00  3.6235940279033486e-04 -9.0478692981547085e-06 0.0000000000000000e+00 -9.0478692981547085e-06 3.6250069640568732e-04 0.0000000000000000e+00 0.0000000000000000e+00 0.0000000000000000e+00 0.0000000000000000e+00  3.6012974472378150e-04 -1.1085719453105113e-05 0.0000000000000000e+00 -1.1085719453105113e-05 3.6030179322589517e-04 0.0000000000000000e+00 0.0000000000000000e+00 0.0000000000000000e+00 0.0000000000000000e+00  3.5719078614455837e-04 -1.3424594012702862e-05 0.0000000000000000e+00 -1.3424594012702862e-05 3.5742540937430721e-04 0.0000000000000000e+00 0.0000000000000000e+00 0.0000000000000000e+00 0.0000000000000000e+00  3.5337521174608395e-04 -1.6288654181310953e-05 0.0000000000000000e+00 -1.6288654181310953e-05 3.5366117639518618e-04 0.0000000000000000e+00 0.0000000000000000e+00 0.0000000000000000e+00 0.0000000000000000e+00  3.4836179632574167e-04 -1.9674817020250542e-05 0.0000000000000000e+00 -1.9674817020250542e-05 3.4876817468071743e-04 0.0000000000000000e+00 0.0000000000000000e+00 0.0000000000000000e+00 0.0000000000000000e+00  3.4167249982026661e-04 -2.3746911941111709e-05 0.0000000000000000e+00 -2.3746911941111709e-05 3.4219161800314556e-04 0.0000000000000000e+00 0.0000000000000000e+00 0.0000000000000000e+00 0.0000000000000000e+00  3.3293765748634147e-04 -2.8825142998644626e-05 0.0000000000000000e+00 -2.8825142998644626e-05 3.3358959454561458e-04 0.0000000000000000e+00 0.0000000000000000e+00 0.0000000000000000e+00 0.0000000000000000e+00  3.2127391603777418e-04 -3.4591970145361555e-05 0.0000000000000000e+00 -3.4591970145361555e-05 3.2217384167309323e-04 0.0000000000000000e+00 0.0000000000000000e+00 0.0000000000000000e+00 0.0000000000000000e+00  3.0591830175459784e-04 -4.1487844840169283e-05 0.0000000000000000e+00 -4.1487844840169283e-05 3.0701575754447778e-04 0.0000000000000000e+00 0.0000000000000000e+00 0.0000000000000000e+00 0.0000000000000000e+00  2.8588158304155051e-04 -4.9404098435486192e-05 0.0000000000000000e+00 -4.9404098435486192e-05 2.8708466385644882e-04 0.0000000000000000e+00 0.0000000000000000e+00 0.0000000000000000e+00 0.0000000000000000e+00  2.6020809397602553e-04 -5.7607752753002027e-05 0.0000000000000000e+00 -5.7607752753002027e-05 2.6162460790298670e-04 0.0000000000000000e+00 0.0000000000000000e+00 0.0000000000000000e+00 0.0000000000000000e+00  2.2871845296098736e-04 -6.5729833724454011e-05 0.0000000000000000e+00 -6.5729833724454011e-05 2.3023445323505529e-04 0.0000000000000000e+00 0.0000000000000000e+00 0.0000000000000000e+00 0.0000000000000000e+00  1.9161513672173307e-04 -7.5070552872981335e-05 0.0000000000000000e+00 -7.5070552872981335e-05 1.9378032944084803e-04 0.0000000000000000e+00 0.0000000000000000e+00 0.0000000000000000e+00 0.0000000000000000e+00  1.4582976238942678e-04 -8.7463212284791904e-05 0.0000000000000000e+00 -8.7463212284791904e-05 1.4898663118095791e-04 0.0000000000000000e+00 0.0000000000000000e+00 0.0000000000000000e+00 0.0000000000000000e+00  8.6506241001479584e-05 -1.0026219370919989e-04 0.0000000000000000e+00 -1.0026219370919989e-04 8.8899509202632781e-05 0.0000000000000000e+00 0.0000000000000000e+00 0.0000000000000000e+00 0.0000000000000000e+00  1.4805610835753281e-05 -1.0984074036915589e-04 0.0000000000000000e+00 -1.0984074036915589e-04 1.7026022298547441e-05 0.0000000000000000e+00 0.0000000000000000e+00 0.0000000000000000e+00 0.0000000000000000e+00  -6.3041783036387895e-05 -1.1348329189780711e-04 0.0000000000000000e+00 -1.1348329189780711e-04 -6.2498054805532139e-05 0.0000000000000000e+00 0.0000000000000000e+00 0.0000000000000000e+00 0.0000000000000000e+00  -1.4149581375669189e-04 -1.1311826927673849e-04 0.0000000000000000e+00 -1.1311826927673849e-04 -1.4137024085079150e-04 0.0000000000000000e+00 0.0000000000000000e+00 0.0000000000000000e+00 0.0000000000000000e+00  -2.1861305708162918e-04 -1.1066819164804722e-04 0.0000000000000000e+00 -1.1066819164804722e-04 -2.1870647332571696e-04 0.0000000000000000e+00 0.0000000000000000e+00 0.0000000000000000e+00 0.0000000000000000e+00  -2.9327318903517199e-04 -1.0600105100257866e-04 0.0000000000000000e+00 -1.0600105100257866e-04 -2.9398744917657029e-04 0.0000000000000000e+00 0.0000000000000000e+00 0.0000000000000000e+00 0.0000000000000000e+00  -3.6289109981920477e-04 -9.8353862646896392e-05 0.0000000000000000e+00 -9.8353862646896392e-05 -3.6457004751314537e-04 0.0000000000000000e+00 0.0000000000000000e+00 0.0000000000000000e+00 0.0000000000000000e+00  -4.2363653017512312e-04 -8.7880131556636928e-05 0.0000000000000000e+00 -8.7880131556636928e-05 -4.2592343630163646e-04 0.0000000000000000e+00 0.0000000000000000e+00 0.0000000000000000e+00 0.0000000000000000e+00  -4.7305203720428074e-04 -7.7114683750977692e-05 0.0000000000000000e+00 -7.7114683750977692e-05 -4.7441727801438537e-04 0.0000000000000000e+00 0.0000000000000000e+00 0.0000000000000000e+00 0.0000000000000000e+00  -5.1323321328093402e-04 -6.9182879328548956e-05 0.0000000000000000e+00 -6.9182879328548956e-05 -5.1476089346691499e-04 0.0000000000000000e+00 0.0000000000000000e+00 0.0000000000000000e+00 0.0000000000000000e+00  -5.4882246594246151e-04 -6.3151193364455692e-05 0.0000000000000000e+00 -6.3151193364455692e-05 -5.4945687083437502e-04 0.0000000000000000e+00 0.0000000000000000e+00 0.0000000000000000e+00 0.0000000000000000e+00  -5.8162197374592866e-04 -5.6985377006976206e-05 0.0000000000000000e+00 -5.6985377006976206e-05 -5.8284810634094653e-04 0.0000000000000000e+00 0.0000000000000000e+00 0.0000000000000000e+00 0.0000000000000000e+00  -6.0863565584074559e-04 -4.8820925131149256e-05 0.0000000000000000e+00 -4.8820925131149256e-05 -6.1006467047555019e-04 0.0000000000000000e+00 0.0000000000000000e+00 0.0000000000000000e+00 0.0000000000000000e+00  -6.2871720146927300e-04 -4.0732730783174428e-05 0.0000000000000000e+00 -4.0732730783174428e-05 -6.2981206952060866e-04 0.0000000000000000e+00 0.0000000000000000e+00 0.0000000000000000e+00 0.0000000000000000e+00  -6.4382294085672917e-04 -3.4226899221202918e-05 0.0000000000000000e+00 -3.4226899221202918e-05 -6.4471445392003416e-04 0.0000000000000000e+00 0.0000000000000000e+00 0.0000000000000000e+00 0.0000000000000000e+00  -6.5560687140105449e-04 -2.9136901726992547e-05 0.0000000000000000e+00 -2.9136901726992547e-05 -6.5620164765031242e-04 0.0000000000000000e+00 0.0000000000000000e+00 0.0000000000000000e+00 0.0000000000000000e+00  -6.6487733712629197e-04 -2.4768340116314470e-05 0.0000000000000000e+00 -2.4768340116314470e-05 -6.6531967586548005e-04 0.0000000000000000e+00 0.0000000000000000e+00 0.0000000000000000e+00 0.0000000000000000e+00  -6.7218735111447992e-04 -2.0906827114407021e-05 0.0000000000000000e+00 -2.0906827114407021e-05 -6.7258510211937596e-04 0.0000000000000000e+00 0.0000000000000000e+00 0.0000000000000000e+00 0.0000000000000000e+00  -6.7804005153135382e-04 -1.7822916521905543e-05 0.0000000000000000e+00 -1.7822916521905543e-05 -6.7833460870001807e-04 0.0000000000000000e+00 0.0000000000000000e+00 0.0000000000000000e+00 0.0000000000000000e+00  -6.8257415950406537e-04 -1.5001472929787226e-05 0.0000000000000000e+00 -1.5001472929787226e-05 -6.8279558454977169e-04 0.0000000000000000e+00 0.0000000000000000e+00 0.0000000000000000e+00 0.0000000000000000e+00  -6.8622386644490694e-04 -1.2554572601423020e-05 0.0000000000000000e+00 -1.2554572601423020e-05 -6.8642256711637655e-04 0.0000000000000000e+00 0.0000000000000000e+00 0.0000000000000000e+00 0.0000000000000000e+00  -6.8912169779085570e-04 -1.0437847987651791e-05 0.0000000000000000e+00 -1.0437847987651791e-05 -6.8926553150218547e-04 0.0000000000000000e+00 0.0000000000000000e+00 0.0000000000000000e+00 0.0000000000000000e+00  -6.9139337126774615e-04 -8.4528332897362137e-06 0.0000000000000000e+00 -8.4528332897362137e-06 -6.9152383637501708e-04 0.0000000000000000e+00 0.0000000000000000e+00 0.0000000000000000e+00 0.0000000000000000e+00  -6.9318185132133533e-04 -6.6511583695775494e-06 0.0000000000000000e+00 -6.6511583695775494e-06 -6.9329133720825260e-04 0.0000000000000000e+00 0.0000000000000000e+00 0.0000000000000000e+00 0.0000000000000000e+00  -6.9451145377970910e-04 -4.9214685578258270e-06 0.0000000000000000e+00 -4.9214685578258270e-06 -6.9461128786975454e-04 0.0000000000000000e+00 0.0000000000000000e+00 0.0000000000000000e+00 0.0000000000000000e+00  -6.9544705056293001e-04 -3.2572302531128098e-06 0.0000000000000000e+00 -3.2572302531128098e-06 -6.9554013848838387e-04 0.0000000000000000e+00 0.0000000000000000e+00 0.0000000000000000e+00 0.0000000000000000e+00  -6.9599917462724961e-04 -1.6216504887134858e-06 0.0000000000000000e+00 -1.6216504887134858e-06 -6.9608886180260116e-04 0.0000000000000000e+00 0.0000000000000000e+00 0.0000000000000000e+00 0.0000000000000000e+00  -6.9618305887997301e-04 2.2025991183460531e-10 0.0000000000000000e+00 2.2025991183460531e-10 -6.9627178579774419e-04 0.0000000000000000e+00 0.0000000000000000e+00 0.0000000000000000e+00 0.0000000000000000e+00  -6.9599898987835623e-04 1.6220194520136348e-06 0.0000000000000000e+00 1.6220194520136348e-06 -6.9608866233588100e-04 0.0000000000000000e+00 0.0000000000000000e+00 0.0000000000000000e+00 0.0000000000000000e+00  -6.9544674783524247e-04 3.2573871201096652e-06 0.0000000000000000e+00 3.2573871201096652e-06 -6.9553980629016951e-04 0.0000000000000000e+00 0.0000000000000000e+00 0.0000000000000000e+00 0.0000000000000000e+00  -6.9451116803663331e-04 4.9212815350067706e-06 0.0000000000000000e+00 4.9212815350067706e-06 -6.9461095757312314e-04 0.0000000000000000e+00 0.0000000000000000e+00 0.0000000000000000e+00 0.0000000000000000e+00  -6.9318178650051919e-04 6.6505110952699708e-06 0.0000000000000000e+00 6.6505110952699708e-06 -6.9329121342918856e-04 0.0000000000000000e+00 0.0000000000000000e+00 0.0000000000000000e+00 0.0000000000000000e+00  -6.9139379930668009e-04 8.4516363292763577e-06 0.0000000000000000e+00 8.4516363292763577e-06 -6.9152419196803598e-04 0.0000000000000000e+00 0.0000000000000000e+00 0.0000000000000000e+00 0.0000000000000000e+00  -6.8912295663544818e-04 1.0436043236891978e-05 0.0000000000000000e+00 1.0436043236891978e-05 -6.8926670384902508e-04 0.0000000000000000e+00 0.0000000000000000e+00 0.0000000000000000e+00 0.0000000000000000e+00  -6.8622634402900327e-04 1.2552150996130714e-05 0.0000000000000000e+00 1.2552150996130714e-05 -6.8642495482543241e-04 0.0000000000000000e+00 0.0000000000000000e+00 0.0000000000000000e+00 0.0000000000000000e+00  -6.8257829335149184e-04 1.4998481619066842e-05 0.0000000000000000e+00 1.4998481619066842e-05 -6.8279962012644704e-04 0.0000000000000000e+00 0.0000000000000000e+00 0.0000000000000000e+00 0.0000000000000000e+00  -6.7804629003666197e-04 1.7819462336585317e-05 0.0000000000000000e+00 1.7819462336585317e-05 -6.7834075237284809e-04 0.0000000000000000e+00 0.0000000000000000e+00 0.0000000000000000e+00 0.0000000000000000e+00  -6.7219609086157468e-04 2.0903103928075435e-05 0.0000000000000000e+00 2.0903103928075435e-05 -6.7259377244951123e-04 0.0000000000000000e+00 0.0000000000000000e+00 0.0000000000000000e+00 0.0000000000000000e+00  -6.6488891512898125e-04 2.4764566718534072e-05 0.0000000000000000e+00 2.4764566718534072e-05 -6.6533120633820565e-04 0.0000000000000000e+00 0.0000000000000000e+00 0.0000000000000000e+00 0.0000000000000000e+00  -6.5562157394441576e-04 2.9133362579406942e-05 0.0000000000000000e+00 2.9133362579406942e-05 -6.5621633409093790e-04 0.0000000000000000e+00 0.0000000000000000e+00 0.0000000000000000e+00 0.0000000000000000e+00  -6.4384072530853308e-04 3.4223986359311157e-05 0.0000000000000000e+00 3.4223986359311157e-05 -6.4473224272921311e-04 0.0000000000000000e+00 0.0000000000000000e+00 0.0000000000000000e+00 0.0000000000000000e+00  -6.2873764357569153e-04 4.0730513053146806e-05 0.0000000000000000e+00 4.0730513053146806e-05 -6.2983258388653535e-04 0.0000000000000000e+00 0.0000000000000000e+00 0.0000000000000000e+00 0.0000000000000000e+00  -6.0865894212048556e-04 4.8819349975968224e-05 0.0000000000000000e+00 4.8819349975968224e-05 -6.1008800131102448e-04 0.0000000000000000e+00 0.0000000000000000e+00 0.0000000000000000e+00 0.0000000000000000e+00  -5.8164807316129889e-04 5.6985148472021513e-05 0.0000000000000000e+00 5.6985148472021513e-05 -5.8287457624184747e-04 0.0000000000000000e+00 0.0000000000000000e+00 0.0000000000000000e+00 0.0000000000000000e+00  -5.4884968424703513e-04 6.3153433252300013e-05 0.0000000000000000e+00 6.3153433252300013e-05 -5.4948454957106361e-04 0.0000000000000000e+00 0.0000000000000000e+00 0.0000000000000000e+00 0.0000000000000000e+00  -5.1325872710333538e-04 6.9187317306074021e-05 0.0000000000000000e+00 6.9187317306074021e-05 -5.1478670004025020e-04 0.0000000000000000e+00 0.0000000000000000e+00 0.0000000000000000e+00 0.0000000000000000e+00  -4.7307452259060120e-04 7.7120333061540377e-05 0.0000000000000000e+00 7.7120333061540377e-05 -4.7444009548411374e-04 0.0000000000000000e+00 0.0000000000000000e+00 0.0000000000000000e+00 0.0000000000000000e+00  -4.2365561663440120e-04 8.7886699483477723e-05 0.0000000000000000e+00 8.7886699483477723e-05 -4.2594275638374514e-04 0.0000000000000000e+00 0.0000000000000000e+00 0.0000000000000000e+00 0.0000000000000000e+00  -3.6290564675716687e-04 9.8361436562368804e-05 0.0000000000000000e+00 9.8361436562368804e-05 -3.6458489720770461e-04 0.0000000000000000e+00 0.0000000000000000e+00 0.0000000000000000e+00 0.0000000000000000e+00  -2.9328203688869822e-04 1.0600935086873330e-04 0.0000000000000000e+00 1.0600935086873330e-04 -2.9399644178220482e-04 0.0000000000000000e+00 0.0000000000000000e+00 0.0000000000000000e+00 0.0000000000000000e+00  -2.1861565998313912e-04 1.1067652340518891e-04 0.0000000000000000e+00 1.1067652340518891e-04 -2.1870896044783717e-04 0.0000000000000000e+00 0.0000000000000000e+00 0.0000000000000000e+00 0.0000000000000000e+00  -1.4149257736389517e-04 1.1312591927982987e-04 0.0000000000000000e+00 1.1312591927982987e-04 -1.4136672245898034e-04 0.0000000000000000e+00 0.0000000000000000e+00 0.0000000000000000e+00 0.0000000000000000e+00  -6.3033768898403231e-05 1.1348993055554821e-04 0.0000000000000000e+00 1.1348993055554821e-04 -6.2489812246280561e-05 0.0000000000000000e+00 0.0000000000000000e+00 0.0000000000000000e+00 0.0000000000000000e+00  1.4817304829576200e-05 1.0984638565142820e-04 0.0000000000000000e+00 1.0984638565142820e-04 1.7038059470432687e-05 0.0000000000000000e+00 0.0000000000000000e+00 0.0000000000000000e+00 0.0000000000000000e+00  8.6521194536740917e-05 1.0026646387513387e-04 0.0000000000000000e+00 1.0026646387513387e-04 8.8914786755701911e-05 0.0000000000000000e+00 0.0000000000000000e+00 0.0000000000000000e+00 0.0000000000000000e+00  1.4584648035202501e-04 8.7465061960350591e-05 0.0000000000000000e+00 8.7465061960350591e-05 1.4900385140750267e-04 0.0000000000000000e+00 0.0000000000000000e+00 0.0000000000000000e+00 0.0000000000000000e+00  1.9163059159275642e-04 7.5069744516892807e-05 0.0000000000000000e+00 7.5069744516892807e-05 1.9379617270503686e-04 0.0000000000000000e+00 0.0000000000000000e+00 0.0000000000000000e+00 0.0000000000000000e+00  2.2873082120620781e-04 6.5727598266719655e-05 0.0000000000000000e+00 6.5727598266719655e-05 2.3024687068831862e-04 0.0000000000000000e+00 0.0000000000000000e+00 0.0000000000000000e+00 0.0000000000000000e+00  2.6021738032129738e-04 5.7604877189669276e-05 0.0000000000000000e+00 5.7604877189669276e-05 2.6163395811806258e-04 0.0000000000000000e+00 0.0000000000000000e+00 0.0000000000000000e+00 0.0000000000000000e+00  2.8588802027053317e-04 4.9400535509309756e-05 0.0000000000000000e+00 4.9400535509309756e-05 2.8709110406713203e-04 0.0000000000000000e+00 0.0000000000000000e+00 0.0000000000000000e+00 0.0000000000000000e+00  3.0592146661214537e-04 4.1483652697906487e-05 0.0000000000000000e+00 4.1483652697906487e-05 3.0701890423631413e-04 0.0000000000000000e+00 0.0000000000000000e+00 0.0000000000000000e+00 0.0000000000000000e+00  3.2127376153065463e-04 3.4587559506046074e-05 0.0000000000000000e+00 3.4587559506046074e-05 3.2217363652577559e-04 0.0000000000000000e+00 0.0000000000000000e+00 0.0000000000000000e+00 0.0000000000000000e+00  3.3293449243071053e-04 2.8820814573072289e-05 0.0000000000000000e+00 2.8820814573072289e-05 3.3358635574272318e-04 0.0000000000000000e+00 0.0000000000000000e+00 0.0000000000000000e+00 0.0000000000000000e+00  3.4166668636306558e-04 2.3742888546287956e-05 0.0000000000000000e+00 2.3742888546287956e-05 3.4218570490922079e-04 0.0000000000000000e+00 0.0000000000000000e+00 0.0000000000000000e+00 0.0000000000000000e+00  3.4835375194232202e-04 1.9671290915819834e-05 0.0000000000000000e+00 1.9671290915819834e-05 3.4876002788779867e-04 0.0000000000000000e+00 0.0000000000000000e+00 0.0000000000000000e+00 0.0000000000000000e+00  3.5336540413364703e-04 1.6285727419850908e-05 0.0000000000000000e+00 1.6285727419850908e-05 3.5365127583050158e-04 0.0000000000000000e+00 0.0000000000000000e+00 0.0000000000000000e+00 0.0000000000000000e+00  3.5717966883103104e-04 1.3422304938179316e-05 0.0000000000000000e+00 1.3422304938179316e-05 3.5741420360318907e-04 0.0000000000000000e+00 0.0000000000000000e+00 0.0000000000000000e+00 0.0000000000000000e+00  3.6011771455084918e-04 1.1084047144503542e-05 0.0000000000000000e+00 1.1084047144503542e-05 3.6028969029172435e-04 0.0000000000000000e+00 0.0000000000000000e+00 0.0000000000000000e+00 0.0000000000000000e+00  3.6234679747220724e-04 9.0467435654672510e-06 0.0000000000000000e+00 9.0467435654672510e-06 3.6248803337747277e-04 0.0000000000000000e+00 0.0000000000000000e+00 0.0000000000000000e+00 0.0000000000000000e+00  3.6404408163407792e-04 7.2804838231633074e-06 0.0000000000000000e+00 7.2804838231633074e-06 3.6416154418860363e-04 0.0000000000000000e+00 0.0000000000000000e+00 0.0000000000000000e+00 0.0000000000000000e+00  3.6526474907427452e-04 5.6878067128595375e-06 0.0000000000000000e+00 5.6878067128595375e-06 3.6536827855425955e-04 0.0000000000000000e+00 0.0000000000000000e+00 0.0000000000000000e+00 0.0000000000000000e+00  3.6606281663323375e-04 4.2411469108005995e-06 0.0000000000000000e+00 4.2411469108005995e-06 3.6615672459283779e-04 0.0000000000000000e+0